coordinates Written by CommBox::Input
1212
  -0.4310000   3.4619998  -2.2599999   0.1240000   3.8719997  -3.0979998
  -1.3089999   4.0719997  -2.0689999  -0.7460000   2.4499998  -2.5109998
   0.9179999   4.8419997  -0.6170000   1.4879999   4.7869997   0.3050000
   1.5459999   5.2459997  -1.4029999   0.0510000   5.4759996  -0.4710000
   0.4620000   3.4499998  -1.0189999  -0.2610000   2.9079998   0.0810000
   1.6349999   2.6719998  -1.2709999  -1.4609999   1.1879999   0.8239999
   2.5429998   0.6870000  -1.5359999  -0.4470000   1.5779999   0.0680000
   1.5659999   1.3319999  -1.1889999   0.3810000   0.7400000  -0.6030000
   0.2240000  -0.7420000  -0.7560000   1.2109999  -1.1339999  -1.0279999
  -0.6560000  -1.1219999  -1.9449999  -0.7849999  -0.4620000  -2.9579998
  -1.2569999  -2.4029998  -1.5999999  -1.8009999  -2.9949998  -2.3139998
  -1.0429999  -2.6819998  -0.3120000  -1.3549999  -3.5779998   0.1940000
  -0.3320000  -1.5719999   0.4130000  -1.1189999  -0.9659999   0.8969999
   0.6230000  -2.0509999   1.4069999  -0.0590000  -2.4609998   2.6309998
  -0.9649999  -2.9899998   2.3359998   0.5850000  -3.1779998   3.1429998
  -0.4290000  -1.3219999   3.5879998  -1.2109999  -1.6499999   4.2659997
  -0.7899999  -0.4600000   3.0319998   0.4250000  -0.9999999   4.1739997
   1.7579999  -1.1739999   1.6489999   2.2649999  -0.9999999   0.6970000
   1.4519999  -0.1890000   2.0399999   2.7629998  -1.8139999   2.5979998
   2.4099998  -1.8089999   3.6219998   2.9389998  -2.8399998   2.2949998
   3.7019998  -1.2669999   2.5559998  -1.8119999   1.9579999   1.3109999
  -3.3539998  -0.1780000   2.8019998  -2.3469998  -0.2310000   2.6519998
  -3.4879998   0.3840000   3.6639998   7.4379995 -10.6729993   3.9539997
   7.8019995 -11.3989992   4.5369997   8.2549995 -10.2989993   3.4669998
  -1.2359999   6.7029996 -11.3919992  -0.9189999   7.1299995 -12.2939992
  -2.2229999   6.2729996 -11.5169992 -10.4669993   0.0510000   0.9779999
 -10.1879993  -0.7619999   0.4150000 -10.4389993  -0.2870000   1.9379999
   2.0119999  -7.1459995  11.0609993   2.0299999  -6.4379996  11.8299992
   2.0719999  -6.5939996  10.1509993   2.4089998   1.2409999  -5.6529996
   2.9949998   1.6179999  -4.8829997   2.3799998   0.2090000  -5.6159996
   9.2349994  -4.0679997   9.9009993   8.4209994  -3.9259997   9.3249994
  10.0029993  -3.3999998   9.6059994   3.7359998  -5.8219996  -9.0359994
   3.6309998  -6.4149996  -8.2489995   4.2899997  -4.9649997  -8.8399994
  -5.5129996  13.4679991  -2.3109998  -5.8159996  12.7079992  -1.6699999
  -6.2819996  14.0489991  -2.5249998   8.6659994  -3.4559998   6.5739996
   9.2209994  -2.6209998   6.5099996   8.6299994  -3.7869998   5.6179996
   5.9579996   6.1159996 -10.4529993   6.7389996   6.0399996 -11.1309993
   5.1329997   5.5289996 -10.6179993  -1.2379999  -9.9239993  -8.3809994
  -0.8869999  -9.0959994  -8.8889994  -1.7639999  -9.6289994  -7.5389995
   5.1649997   9.6169994  -7.2949995   5.8029996   9.6879994  -6.5179996
   4.5079997   8.7819994  -7.0589995  11.7929992   4.1959997  -4.0889997
  11.0359993   4.8369997  -3.8179997  11.8199992   3.4529998  -3.3869998
  -4.1999997   2.6079998  -1.1599999  -4.3299997   1.8519999  -0.4710000
  -4.1649997   3.5299998  -0.6930000  -5.8189996   7.2179995   0.1880000
  -6.5069996   6.7269996  -0.4020000  -6.3289996   7.7509995   0.8489999
   6.8459995   6.2409996  -3.2599998   6.7189996   5.5919996  -2.4669998
   6.3449996   7.0259995  -2.8619998  -5.6689996  11.7039992  -0.3080000
  -6.4469996  11.0909993  -0.4270000  -5.7569996  12.0929992   0.6160000
   0.9699999  -2.3449998 -11.1749993   0.3330000  -2.9799998 -10.6849993
   1.5129999  -1.7769999 -10.5459993 -13.1679991   0.2610000   1.1269999
 -13.2409991   1.0389999   0.4580000 -12.2269992  -0.0930000   1.0169999
  -1.1939999  14.5009990   0.8619999  -2.1599999  14.2319991   0.5180000
  -0.9719999  15.3459990   0.4110000  -9.0879994  -5.8299996   4.3169997
  -8.8039994  -4.9999997   3.7879998  -8.2799995  -6.4869996   4.2659997
  -7.3879995   8.9049994  -2.4589998  -7.8579995   8.1089995  -2.9489998
  -6.4439996   8.7049994  -2.1519999   3.4339998  10.8889993   5.2009997
   3.0879998  11.5029992   4.4489997   2.7419998  10.4019993   5.7499996
   7.2159995  10.0679993  -3.2559998   6.3919996   9.6609994  -2.8579998
   8.0369995   9.9969993  -2.6539998   0.6120000   2.2149999   4.1029997
   1.5409999   1.9579999   3.7409998   0.6840000   2.3779998   5.1149997
  -7.2619995  -3.8789997   9.6159994  -6.9189995  -4.8189997   9.9119993
  -7.5359995  -3.9679997   8.6389994   0.9999999 -10.1189993  -4.6029997
   0.8239999 -11.0569993  -4.1479997   0.8839999  -9.4119994  -3.8519997
  -2.0299999   5.9369996   4.6889997  -2.5389998   5.9319996   3.8209997
  -2.4509998   6.6329996   5.2769997 -11.0729993  -8.1649995  -0.7250000
 -11.2649993  -9.1449994  -0.4760000 -10.2909993  -7.9639995  -0.0850000
  -7.1929995   9.1009994   2.2449999  -6.9399995   9.6689994   3.0479998
  -7.3879995   9.6189994   1.3749999   4.2219997 -11.7399992  -0.3840000
   3.4389998 -11.2919993   0.1520000   5.1219997 -11.8689992   0.1140000
   5.5559996 -10.7399993  -2.5489998   5.3219996 -10.9749993  -1.6189999
   5.1459997 -11.4509992  -3.1639998  -7.5629995   2.5089998  -8.2139995
  -7.4139995   1.9969999  -7.3139995  -7.4219995   3.5669998  -8.0799995
  -0.2080000  11.7369992   0.9079999  -0.8049999  11.5689992   0.1000000
  -0.5680000  12.6319992   1.2519999   7.2129995  -8.0849995  -5.3149996
   7.8039995  -8.5709994  -6.0249996   7.2279995  -7.0859995  -5.4579996
  -6.2099996   0.6700000  -3.6739998  -5.7569996   1.5989999  -3.6869998
  -6.7099996   0.5850000  -4.5749997  -9.4119994  -3.0219998  10.9539993
  -9.9359993  -2.2209999  10.5609993  -8.7549994  -3.4419998  10.2519993
  -6.2769996  -1.5029999 -10.5689993  -5.9299996  -1.3829999 -11.5859992
  -6.6719996  -2.4429998 -10.4659993   2.7149998  -7.7039995   0.7070000
   3.0299998  -7.6899995  -0.2790000   2.1429999  -6.8559995   0.8209999
   4.2189997  -2.3019998  13.4259991   3.1769998  -2.3159998  13.3289991
   4.5799997  -1.9899999  12.5299992  -5.5619996  -5.5829996  12.8609992
  -5.8149996  -5.9139996  11.8919992  -5.2669997  -4.5959997  12.7289992
   8.3089995   8.1609995  -0.4790000   8.7849994   7.4209995   0.0690000
   9.0389994   8.4439994  -1.2059999  -6.2429996  -8.4249994  -4.3159997
  -7.1469995  -8.1989995  -3.8889997  -6.3319996  -9.3959994  -4.6419997
  -5.2769997   6.7939996  -7.9299995  -4.5209997   7.4669995  -8.0119995
  -5.6559996   7.0629995  -7.0059995  -5.1369997   5.0559997   6.9529995
  -4.5759997   4.4349997   6.3399996  -6.1099996   5.0449997   6.7959996
  10.5099993  -3.6739998   0.5590000  11.2639993  -4.3849997   0.2690000
   9.5079994  -3.9019997   0.5700000  -2.7719998  -4.3819997  10.2579993
  -3.6119998  -4.4639997  10.8029993  -1.9929999  -4.3339997  10.9599993
  -0.0030000 -11.7369992   5.8939996  -0.5980000 -12.0259992   5.1669997
  -0.4860000 -11.0979993   6.5779996  -7.0909995   8.0669995   7.8659995
  -6.5739996   7.3599995   8.3959994  -7.2529995   7.6699995   6.9669995
   5.0459997  -0.2630000 -11.5479992   5.0369997   0.0900000 -10.6029993
   4.1349997  -0.1670000 -11.8749992   7.0389995  -5.1179997  -4.3319997
   7.8009995  -5.0489997  -4.9929997   7.2389995  -4.3929997  -3.6609998
  -8.9069994   3.3939998   2.1839999  -9.4199994   3.3059998   1.2919999
  -9.6489994   2.9629998   2.7849998   3.7429998   6.7819996  -0.4020000
   3.9889997   5.8539996  -0.0410000   4.5099997   7.4579995  -0.2290000
  13.1569991  -4.3599997   3.8599997  12.2329992  -3.9339997   3.5269998
  13.3439991  -4.0979997   4.7719997   8.1579995   1.0699999   5.1829997
   8.3949994   1.9949999   5.5829996   8.9939994   0.6480000   4.7549997
   4.3209997   4.1309997   0.7350000   4.3059997   3.1049998   0.7200000
   4.0749997   4.4389997   1.6869999  -0.9069999   5.5009996  -8.8869994
  -1.1519999   6.0939996  -9.7119994  -1.7709999   5.1669997  -8.4279994
   0.7300000 -11.6279992  -7.0139995   0.2750000 -11.0189993  -7.6979995
   0.9689999 -10.9909993  -6.2799996  -1.3219999   5.7019996   9.2149994
  -1.4629999   6.6189996   8.7969994  -2.1139999   5.0939997   8.8739994
 -10.3469993  -0.9279999  -2.5569998 -11.0529993  -0.1750000  -2.3469998
 -10.2319993  -1.5329999  -1.7019999  -3.1159998  -0.6690000   8.6659994
  -3.8659997  -0.6480000   7.9429995  -2.3759998   0.0300000   8.4189994
  -1.3969999   0.8079999   7.0109995  -0.9739999  -0.1400000   6.9239995
  -0.6080000   1.4699999   7.0259995   2.7579998  12.4489992   0.6200000
   1.8039999  12.0819992   0.5310000   2.7189998  13.4419991   0.5490000
   1.4709999  -5.1799997   0.7350000   1.9789999  -5.1519997   1.6439999
   1.9139999  -4.4979997   0.1020000   1.7189999   0.3530000  -9.9279993
   1.6329999   1.2229999 -10.4729993   2.5579998   0.3390000  -9.3089994
  -6.8519995   4.8389997   1.5429999  -7.7639995   4.4269997   1.7679999
  -6.8339995   5.0499997   0.5360000   5.4559996   9.0609994   4.9709997
   4.6499997   9.7309994   4.9499997   5.9639996   8.9279994   4.1069997
  -2.2119999  -7.6909995   0.4660000  -1.9059999  -7.4959995  -0.4940000
  -1.6909999  -7.0719995   1.1059999  -2.0909999  -4.8629997   5.7289996
  -3.0189998  -5.2009997   5.4319996  -2.2199999  -4.2189997   6.5349996
  -2.0959999 -10.5759993  -0.0380000  -2.3259998  -9.7599994   0.5080000
  -1.0569999 -10.5429993  -0.0300000   4.4489997  13.4289991  -2.6539998
   4.7179997  12.5529992  -2.2089999   4.1239997  13.3009991  -3.6269998
   8.2259995  -4.7039997   3.9419997   8.8529994  -5.3939996   3.5089998
   7.3319995  -4.9139997   3.4899998   2.5739998  -1.6839999   6.2769996
   2.4949998  -0.6890000   6.5529996   3.4869998  -1.7949999   5.8089996
  -3.9279997  -9.1639994   2.2399999  -3.0209998  -9.5879994   2.5869998
  -3.7479998  -8.4649994   1.4849999   1.4869999  -6.1779996 -10.4319993
   2.2969998  -6.0219996  -9.7269994   0.8809999  -5.3309996 -10.3889993
   4.8929997   8.2439995  -3.1539998   4.4619997   7.9889995  -2.2369999
   4.2449997   8.7649994  -3.6919998  -1.4519999   2.9019998  11.2459993
  -0.6270000   3.4809998  10.9449993  -2.1729999   2.6729998  10.4989993
  -4.5959997  -2.5789998   3.3089998  -4.1389997  -1.6809999   3.0799998
  -4.1039997  -3.3499998   2.8379998  -6.1239996   2.7239998   5.6079996
  -5.7929996   3.5489998   5.0439997  -7.1309995   2.8039998   5.8799996
   9.8759993   9.6839994  -2.0819999  10.0699993   9.9259993  -3.0679998
  10.7349993   9.6649994  -1.5059999  -9.8899993   2.7519998  -3.1679998
 -10.2999993   2.1579999  -3.9339997  -8.9179994   2.9289998  -3.2349998
   6.7519996  11.9499992   1.1329999   7.5519995  11.9469992   0.4990000
   6.7079996  12.9769991   1.3489999   0.1140000   9.0919994   1.8739999
   0.0080000  10.0889993   1.6279999   0.6750000   8.6839994   1.0969999
   6.9479995  -6.4039996   9.8139994   7.8369995  -6.7569996  10.1749993
   6.5369996  -6.0099996  10.7009993  -3.0929998  12.6009992  -8.1949995
  -2.2929998  12.1049992  -8.7239994  -3.7749998  11.9009992  -7.7629995
   7.9129995  -1.8639999   3.4379998   8.7549994  -1.4709999   3.8279997
   7.9479995  -2.9149998   3.6659998   6.1679996   8.3539994   7.5899995
   5.7979996   8.5349994   6.6439996   7.2419995   8.4569994   7.6009995
   2.9959998   7.5069995  -6.8849995   2.4299998   8.1789995  -7.4149995
   3.1429998   6.6079996  -7.3979995   8.2469995  -9.0309994   8.8569994
   7.7629995  -8.8499994   7.9559995   7.9739995  -9.8379994   9.3949994
  -6.1729996  -1.1539999   9.2889994  -7.0549995  -0.6360000   9.1019994
  -6.3819996  -2.1409999   9.5459994   6.4639996  -2.9279998   8.1239995
   6.2969996  -1.9069999   7.9359995   7.1829995  -3.1159998   7.4759995
   4.9199997  -3.3979998  -8.8729994   5.6699996  -2.8079998  -8.5529994
   4.8089997  -3.1409998  -9.8889993   5.2389997  -8.0779995  -8.4959994
   5.2999997  -7.5959995  -9.4479994   6.2039996  -8.0559995  -8.2079995
  -2.7459998  10.0529993   5.8319996  -3.1139998   9.0799994   5.7679996
  -1.8429999  10.0799993   5.4219996  -4.8239997  10.8169993  -7.3229995
  -5.4619996  10.6979993  -6.5129996  -4.3429997   9.9189993  -7.5179995
  -1.8979999  -0.7100000  13.0939991  -1.8319999  -1.6879999  13.5269991
  -1.6309999   0.1810000  13.6619991   4.6489997  11.1099993  -0.6240000
   3.7269998  11.4599992  -0.2830000   5.1839997  11.4249992   0.1780000
  -2.3289998  -9.1089994  -5.9809996  -3.1009998  -8.9159994  -5.3199996
  -1.5299999  -8.5499994  -5.6209996  -9.6329994  -6.8919995   7.6919995
  -9.3889994  -7.5569995   6.9639995 -10.6549993  -6.8169996   7.7639995
   2.4079998 -11.6689992   6.0319996   1.3939999 -11.6849992   6.0949996
   2.7709998 -12.6289992   6.1129996   3.2729998   4.5129997   3.4329998
   3.1069998   3.4959998   3.4049998   2.3569998   5.0009997   3.4589998
  -1.7029999   7.2459995   0.7500000  -1.0999999   7.8829995   1.2899999
  -2.0249999   6.4759996   1.3489999  -7.8699995   7.1219995  -9.2509994
  -6.8799995   7.1259995  -9.0069994  -8.2569995   6.2869996  -8.7619994
  -5.1089997   8.2619995   4.5399997  -4.5709997   8.3839994   3.6349998
  -4.5009997   7.8389995   5.2819997   7.6659995  -1.6929999  -5.6029996
   8.4639994  -2.2689999  -5.2149997   6.9589995  -1.8319999  -4.8909997
  -9.7959994   6.3699996  -2.2079999 -10.0839993   7.2659995  -1.9939999
 -10.4459993   5.6149996  -1.7939999  10.7009993  -4.9499997  -3.0349998
  11.0219993  -5.3339996  -3.9129997  11.5509992  -4.7849997  -2.4709998
  -6.3059996  -6.4309996  10.2349993  -5.6109996  -6.9109995   9.6729994
  -7.2449995  -6.8849995  10.1499993   8.4089994  -6.6839996  -1.6179999
   7.9739995  -6.0759996  -2.3099998   9.4349994  -6.6689996  -1.7029999
  -5.4069996   4.6119997   3.7379998  -4.4869997   4.5629997   3.3159998
  -6.0109996   4.7339997   2.9089998  10.8579993  -3.2639998   3.0709998
  10.7289993  -3.1979998   2.0559999  10.2949993  -2.6269998   3.6019998
  -4.5509997   0.3300000   0.3820000  -3.9689997   0.2120000   1.2269999
  -5.4549996  -0.0850000   0.6650000  -3.5359998 -10.6339993   8.3079995
  -3.6039998 -11.6319992   8.0279995  -4.5169997 -10.4029993   8.1529995
   4.9009997  -4.7349997   5.3929996   4.9919997  -3.7399998   5.5999996
   5.5119996  -5.2929997   5.9709996  -3.4619998 -10.4649993 -10.4139993
  -2.8009998 -10.3189993  -9.6859994  -4.4669997 -10.1339993 -10.1929993
   8.6259994   3.5179998   6.2809996   8.2489995   4.2919997   5.6929996
   8.3739994   3.8079997   7.2109995  12.4169992   0.2690000   2.8559998
  12.0199992  -0.2730000   2.0179999  12.3219992   1.2489999   2.6449998
   7.2359995   0.8269999  -0.5140000   8.2779995   0.7240000  -0.4470000
   6.9179995   0.0200000   0.0780000   2.3129998  -3.0309998  -7.5679995
   3.2189998  -3.3909998  -7.7859995   1.5939999  -3.4849998  -8.1089995
   2.8159998   2.7399998  -7.9159995   2.8919998   2.2729999  -6.9909995
   3.7739998   2.6129998  -8.2289995  -8.0719995  -4.2209997   7.0539995
  -7.3089995  -4.1439997   6.2529996  -8.5869994  -5.1259997   6.7779996
  -3.4569998   7.2959995   6.4699996  -3.2179998   7.7109995   7.3679995
  -4.0179997   6.4769996   6.7499996   3.5709998  -7.5219995   7.0859995
   3.2899998  -7.9089995   6.1939996   4.5289997  -7.3509995   7.0619995
   2.6269998  15.6369990  -2.6849998   3.1479998  14.7759990  -2.4629998
   3.2549998  16.2009989  -3.3019998   1.7129999  -6.0139996   8.6049994
   1.9229999  -5.0099997   8.5459994   2.4729998  -6.4459996   8.0169995
   7.5959995  -8.4919994   6.2269996   8.4949994  -8.3949994   5.7489996
   7.1189995  -9.3089994   5.8169996  -6.5399996  -3.2079998   5.0139997
  -5.6769996  -2.8989998   4.4979997  -7.3279995  -2.8239998   4.4839997
 -10.5049993   0.6630000  -5.0159997 -10.5219993   0.1830000  -4.0399997
 -11.2439993   0.2860000  -5.5649996   4.9859997 -10.9599993   7.0719995
   4.3959997 -10.9899993   6.2459996   4.3869997 -10.4329993   7.7689995
  -1.8819999   2.8309998   3.1919998  -0.8899999   2.6669998   3.4529998
  -2.4479998   2.3859998   3.9309997  10.6849993   3.7339998   4.4349997
  10.1749993   3.4769998   5.2859997  10.1749993   3.2879998   3.6809998
  -1.7479999 -10.9739993  -2.7089998  -1.8259999 -11.0999993  -1.7019999
  -1.6039999 -10.0009993  -2.8589998   6.2069996   1.3419999  -3.0579998
   6.9299995   1.8419999  -3.5999998   6.5349996   1.1869999  -2.0879999
  -6.7149996  -7.3119995   3.8329997  -6.4119996  -7.1189995   2.8859998
  -6.9799995  -8.2939995   4.0109997   9.6619994 -10.0799993  -0.4890000
   9.7289994 -10.7599993  -1.2449999   9.0559994  -9.3479994  -0.8439999
  -6.0749996  -9.9889993 -10.1049993  -6.5869996 -10.8729993  -9.9959993
  -6.2619996  -9.4639994  -9.2319994   6.2769996   5.0019997  -7.7879995
   5.9779996   5.5429996  -6.9629995   6.0999996   5.5349996  -8.6179994
   4.8249997   9.2719994  -9.9759993   4.2099997   8.5289994 -10.4239993
   4.3679997   9.6679994  -9.1779994  -7.1749995   3.9569997  -3.5829998
  -6.1689996   3.6809998  -3.7429998  -7.6549995   4.3449997  -4.4609997
   6.5309996   9.3589994   2.4409998   6.4869996  10.2579993   1.9449999
   6.3009996   8.6139994   1.7139999  -4.1749997   0.3530000  11.2889993
  -3.5889998  -0.3670000  11.7369992  -4.4619997   0.0240000  10.3669993
  -0.8379999  -5.9039996   2.0629999  -0.4940000  -6.1249996   3.0109998
  -0.0320000  -5.5909996   1.4939999   5.7499996   1.1459999   4.2959997
   6.7369996   0.9349999   4.6389997   5.1849997   1.5859999   5.0869997
   3.7819998   2.3959998  -3.6399998   3.3009998   2.4219998  -2.7399998
   4.7429997   2.0389999  -3.4719998   2.9859998   4.7019997  10.5169993
   3.5859998   5.3699996  11.0049993   2.7809998   3.8879997  11.1029993
  -0.6190000  -4.2819997  -9.8629993  -1.6469999  -4.2259997  -9.6909994
  -0.1890000  -4.4579997  -8.9869994  10.4449993  -0.2230000  -3.5829998
  10.1759993   0.2780000  -4.4059997  10.0769993  -1.1529999  -3.4839998
  10.2859993  -7.7779995   5.4329996  10.2439993  -7.1369995   4.6249997
  10.2059993  -7.3429995   6.3559996  -3.2759998   8.5979994  -7.8879995
  -2.4479998   8.7599994  -7.2609995  -2.9929998   8.7589994  -8.8749994
   5.2259997  -1.8559999   5.4199996   5.8239996  -1.3219999   6.0629996
   5.5549996  -1.6489999   4.4749997 -10.1039993   2.5429998  -0.3900000
  -9.9659993   2.4929998  -1.4489999 -10.2149993   1.6309999   0.0380000
   3.5509998   4.8279997  -4.9739997   2.5759998   5.1429997  -4.9279997
   3.6699998   3.9299997  -4.4859997  -5.3279996  -7.0869995  -1.1119999
  -6.0259996  -7.6009995  -1.6889999  -5.5889996  -7.0999995  -0.0790000
   0.8229999   5.8419996   3.4659998   0.8659999   6.7509996   3.0099998
  -0.0740000   5.7359996   3.9479997  -4.4569997   8.3279995 -11.4129992
  -5.3909996   8.0779995 -11.7479992  -4.2459997   7.6629995 -10.6359993
 -13.2039991   2.5259998  -0.5690000 -12.5839992   3.3419998  -0.5040000
 -14.1729991   2.8879998  -0.3830000  -8.7219994   7.4499995  -4.5469997
  -9.4009994   7.0929995  -3.8299997  -9.2109994   8.2839995  -4.9669997
   7.3579995   4.9419997   1.8859999   7.4049995   5.0179997   2.9249998
   7.3109995   3.9179997   1.7829999  11.0749993  -1.9109999   6.8109996
  10.8929993  -1.8209999   7.8059995  12.0399992  -2.3019998   6.7079996
 -11.2329993  -6.4499996  -2.7849998 -10.3399993  -5.8679996  -2.7649998
 -11.3639993  -6.8289995  -1.8129999 -12.6929992   0.5520000  -2.4699998
 -12.6999992   1.3279999  -1.8069999 -13.3849991   0.7210000  -3.1979998
  -4.5149997  -6.8529995 -12.3759992  -5.2159997  -6.5639996 -11.6029992
  -4.0139997  -6.0169996 -12.6589992  -7.4439995  -9.3239994  -1.3219999
  -7.9929995  -8.8759994  -0.5650000  -7.9409995  -8.9919994  -2.2379999
  -3.3079998  -4.3299997  -9.8259994  -3.7489998  -3.9589997 -10.6609993
  -3.4009998  -5.3719996  -9.8169994   8.2719995  -7.6159995   0.8939999
   8.1349995  -7.3539995  -0.0900000   7.7069995  -8.4189994   0.9729999
  -0.1350000   0.6020000  10.8769993  -0.7410000   1.4029999  10.6389993
  -0.6560000  -0.0600000  11.4709992  -0.3320000  -0.0890000  -8.0849995
   0.2660000  -0.1240000  -8.8909994  -0.3510000   0.8809999  -7.7869995
  -0.6130000  -7.3689995   7.5179995   0.3180000  -7.1629995   7.8529995
  -0.7460000  -6.8509995   6.6579996 -10.1559993  -2.5479998  -0.3120000
 -10.6799993  -3.2709998   0.2020000  -9.1859994  -2.7999998  -0.4920000
   7.0269995   2.2669999   1.8209999   7.0279995   1.6969999   0.9369999
   6.3029996   1.9099999   2.4769998  -3.5479998  -4.3399997 -12.8519992
  -3.9659997  -3.5849998 -13.4449991  -2.5819998  -4.1079997 -12.6359992
   4.4899997  12.2839992  -7.7769995   4.9249997  11.3369993  -7.6449995
   5.0929997  13.1349991  -7.6999995   1.5379999   9.0469994  -8.7239994
   1.9389999   8.5539994  -9.5459994   1.7639999  10.0399993  -8.7849994
  -7.2689995   5.2429997  -1.2269999  -7.0759995   4.5899997  -2.0339999
  -7.9099995   5.9499996  -1.6259999   5.3649996   3.3449998   9.2029994
   4.5169997   3.8609997   9.4789994   6.2109996   3.9689997   9.1349994
  -5.9969996  -2.8829998  -4.4809997  -5.6789996  -2.3989998  -5.3279996
  -6.9049995  -2.4249998  -4.2279997   7.6619995  -4.3879997   0.4340000
   6.7599996  -4.1449997   0.8419999   7.9539995  -5.3319996   0.4130000
   2.0809999  -3.3629998   8.2569995   2.2109999  -2.6969998   7.4589995
   3.0199998  -3.4909998   8.7269994   7.1739995   8.5639994  -5.5739996
   7.3019995   9.1089994  -4.7279997   6.5809996   7.7499995  -5.5679996
   2.8769998   7.5989995 -10.6079993   2.3589998   7.8849995 -11.4379992
   3.1849998   6.6629996 -10.8659993  -4.0479997   5.2079997  -0.3340000
  -3.9849997   5.4779996  -1.3309999  -4.6739997   5.9329996   0.0540000
   8.6469994   4.8279997  -6.7459996   8.9089994   5.7669996  -6.4099996
   7.9819995   4.8009997  -7.4899995   0.5310000 -12.8049992  -3.5839998
   0.4440000 -13.8559991  -3.7559998  -0.3140000 -12.4859992  -3.0409998
   5.8069996  -5.5009996   3.0789998   5.5729996  -6.4429996   2.7379998
   5.3519996  -5.1689997   3.8969997   2.1249999   2.7049998 -11.9389992
   2.6929998   2.8259998 -12.7729992   1.1339999   3.0439998 -12.0389992
   4.3949997  -3.8339997   9.7419994   5.0789997  -3.6459998   8.9229994
   4.9259997  -4.0209997  10.6369993   6.6119996   2.7049998  -9.2239994
   6.4069996   3.4389998  -8.5599994   7.3859995   3.0209998  -9.8649993
   6.9369995  -0.3990000   7.2369995   7.4809995   0.1350000   6.4999996
   6.8489995   0.1620000   8.0569995  -4.4079997  11.3919992  -3.8919997
  -5.4069996  11.3549993  -4.2399997  -4.4799997  12.0919992  -3.1699998
  -4.6859997   2.9339998  -3.7499998  -4.4499997   2.8929998  -2.7339998
  -3.9559997   2.3949998  -4.2459997   6.8189996  -1.6429999  -8.2009995
   6.9639995  -1.6619999  -7.1509995   7.7209995  -1.6389999  -8.6999994
  -2.8519998  -6.7779996   8.9279994  -1.8939999  -7.0109995   8.6809994
  -2.7179998  -5.8949996   9.4159994  -3.5939998  -5.4689996  -2.3049998
  -4.2439997  -6.1249996  -1.8199999  -3.9629997  -4.5239997  -2.1089999
   1.6629999   2.2479999  11.6909992   1.4809999   2.7569998  12.5549992
   0.9749999   1.5069999  11.6769992   3.0259998  -9.2449994  -6.0659996
   2.2429999  -9.7559994  -5.6139996   3.7179998  -8.8369994  -5.3849996
  -5.8369996  -9.8779993   4.4129997  -5.8349996 -10.8409993   4.8139997
  -5.0349997  -9.7009994   3.7929997 -11.9649992   4.3689997  -3.6239998
 -12.1449992   5.1789997  -2.9899998 -11.0789993   4.0349997  -3.3289998
  -6.5559996  10.5779993   4.7089997  -5.8849996   9.8169994   4.9019997
  -7.2339995  10.5209993   5.4819996  -0.3930000  10.0309993   4.6369997
  -0.2400000   9.4319994   3.8039997   0.1200000  10.9459993   4.6699997
  -1.7629999   3.8069997   6.2959996  -1.6489999   4.5179997   5.5949996
  -0.8879999   3.3839998   6.5689996  -3.6309998 -11.6989992  -5.8289996
  -3.0479998 -10.8669993  -5.9109996  -3.0069998 -12.3819992  -5.5609996
  -4.5889997   0.1400000  -9.4029994  -3.8399997  -0.4470000  -9.0849994
  -5.2759997  -0.5120000  -9.9009993  -8.7579994   6.7409996   2.3749998
  -8.2289995   7.5889995   2.1269999  -8.1209995   5.9709996   2.4629998
  -1.9859999   8.4319994  -1.6529999  -1.8799999   7.9219995  -0.7550000
  -1.1289999   8.2719995  -2.2009999   5.8099996  -1.4679999  -3.3979998
   4.7909997  -1.6189999  -3.2999998   5.9749996  -0.4500000  -3.3499998
  -8.0439995   5.1359997   6.4169996  -7.9609995   5.8199996   5.6109996
  -8.8809994   4.5649997   6.2549996   2.8249998   0.1500000   9.7479994
   2.6549998   0.9569999  10.3819993   3.4759998  -0.3930000  10.2809993
   9.2529994   0.6400000  -6.0399996   9.5989994   0.7949999  -6.9859995
   8.8079994  -0.2610000  -5.8909996   6.0479996  -6.4079996   7.2009995
   6.2999996  -6.2419996   8.1869995   6.7809996  -6.9739995   6.7239996
 -11.1969993   5.7849996   1.9229999 -11.7539992   6.6879996   2.0909999
 -10.2399993   6.0789996   2.0999999   4.5469997   5.0159997   5.8449996
   4.1209997   4.8859997   4.8669997   4.1019997   5.7179996   6.4569996
  -3.2209998 -12.5929992   1.4149999  -3.0269998 -11.7159992   0.8369999
  -2.9249998 -12.2399992   2.3169998  -8.3449994   4.9249997  -5.8349996
  -9.0359994   4.7609997  -6.4739996  -8.4079994   5.9269996  -5.6439996
   2.3089998   9.0959994  -4.6189997   2.7439998   8.7079994  -5.4459996
   1.8039999   9.9579993  -4.8429997   3.0889998  -1.6689999  -3.0309998
   2.8269998  -0.7849999  -2.5849998   2.5769998  -1.7329999  -3.9299997
  12.0929992   1.9799999  -2.2759998  13.0019991   1.8159999  -1.7619999
  11.8219992   1.0949999  -2.6529998   0.4980000  -1.9919999  10.3959993
   0.4890000  -0.9969999  10.3809993   0.8529999  -2.3699998   9.5069994
  10.7219993   4.0279997  -7.9659995   9.9979993   4.2039997  -7.2169995
  11.6209992   3.9539997  -7.5179995  -5.1379997  -1.0289999   6.8129996
  -5.7619996  -1.3979999   6.0299996  -5.4909996  -1.1399999   7.7559995
   0.8169999  -9.9999993   0.2270000   1.0549999  -9.2099994   0.8099999
   1.2999999 -10.7989993   0.7100000  -0.0020000  -8.7479994   3.9139997
   1.0289999  -8.9879994   4.0069997  -0.1330000  -7.9049995   4.4799997
  10.3029993  -0.8479999   4.4589997  11.0509993  -0.3090000   4.0179997
  10.6109993  -1.2269999   5.3669996 -10.6189993   2.0369999   3.8469997
 -10.9929993   1.0589999   3.9939997 -11.4739992   2.5209998   3.6419998
  -6.8329995  -0.6750000   1.5329999  -7.0479995   0.1520000   2.1549999
  -7.0329995  -1.5299999   2.0199999  -7.4399995   7.2989995   5.0989997
  -6.4739996   7.6009995   4.6389997  -8.0559995   7.8359995   4.5279997
   7.2659995   5.3469996   4.6379997   6.3689996   5.1369997   5.1179997
   7.3139995   6.3699996   4.6859997   1.5889999  -6.1649996 -13.1619991
   1.6019999  -6.1199996 -12.0609992   0.6930000  -5.9209996 -13.4899991
   0.5460000  -5.1859997  -7.7309995  -0.1290000  -4.9529997  -6.9989995
   1.1879999  -5.8919996  -7.3199995  -1.0199999   8.6669994  -9.5339994
  -1.0429999   8.3389995 -10.5209993  -0.0810000   8.5029994  -9.1289994
   0.7639999   2.5439998   6.9189995   1.5809999   1.9089999   6.9769995
   0.9119999   3.3549998   7.5599995  -1.0709999  -9.9989993   7.5449995
  -2.0589999 -10.0799993   7.8839995  -0.8969999  -9.0409994   7.4479995
   0.8229999 -10.2399993   9.2949994   0.4300000  -9.8219994  10.1599993
   0.0590000 -10.1249993   8.5559994  -9.5399994  -3.1449998  -7.3969995
  -9.8359994  -3.1669998  -8.3289995  -8.6679994  -2.6469998  -7.2669995
  -0.3580000  -8.3129995 -10.1109993  -0.3610000  -8.6319994 -11.0929993
   0.4640000  -7.7039995  -9.9509993   0.4660000  11.1079993  -5.5669996
   0.8359999  12.0799992  -5.7739996  -0.3260000  11.2229993  -5.0069997
   8.7289994   3.2349998  -1.8349999   7.9119995   3.6549998  -1.3009999
   8.5969994   3.0919998  -2.8159998  -3.6479998   8.7009994   2.2939998
  -3.6979998   8.1599995   1.4209999  -3.8009997   9.6549994   2.0159999
  -8.1709995  -1.3729999  -4.0179997  -9.0739994  -1.3379999  -3.5299998
  -7.5489995  -0.8599999  -3.3879998   7.2179995  -3.5229998  -2.1479999
   7.2189995  -3.7759998  -1.1569999   6.5469996  -2.7819998  -2.3879998
  -9.0389994  -2.2189999   3.8909997  -8.7989994  -1.5699999   4.6609997
  -9.9469993  -2.6529998   4.0219997   2.5849998  11.4689992  -9.2929994
   3.2509998  11.9389992  -8.6679994   2.5089998  12.1109992 -10.0179993
  -7.1269995  11.1049993  -4.2539997  -7.9129995  11.7519992  -4.4459997
  -7.2049995  10.4049993  -3.4639998   1.6009999  -2.0489999  12.9619991
   1.1219999  -1.9589999  12.1409992   1.1239999  -1.4729999  13.7069991
  -0.2220000   1.4239999  -5.0419997  -0.2280000   0.8999999  -4.1639997
   0.7609999   1.4259999  -5.3689996  -6.3859996  -9.7129994   8.6619994
  -5.8119996  -8.9259994   8.2389995  -7.2429995  -9.6479994   8.0929995
 -11.5219992   4.8499997  -0.6160000 -10.8059993   4.1349997  -0.5180000
 -11.7349992   5.3519996   0.2220000   6.4439996 -12.5199992   1.3679999
   7.3479995 -12.7119992   0.9459999   6.6699996 -11.9449992   2.1879999
   5.6039996   8.7199994  -0.2830000   6.6509996   8.7229994  -0.3710000
   5.1729997   9.6629994  -0.3860000  -1.2739999  -6.9379995  -2.2249999
  -2.0369999  -6.2409996  -2.2029999  -0.9879999  -7.0169995  -3.2179998
   0.8359999  -8.8119994  -2.3269998   0.9269999  -9.2839994  -1.4369999
   0.2150000  -8.0299995  -2.0739999  -0.6660000  -3.9639997  11.7839992
  -0.1260000  -3.2609998  11.2499993  -0.0750000  -4.7809997  11.8959992
  -6.0289996   7.8859995  -5.4719996  -5.3179996   8.1629995  -4.8279997
  -6.9799995   7.8599995  -5.0999997  -7.4719995   0.5230000  -6.2489996
  -7.1739995  -0.4070000  -6.5249996  -8.4959994   0.5640000  -6.0559996
  -2.1119999   8.1249995   8.7219994  -2.5109998   8.1609995   9.6459994
  -1.6639999   9.0159994   8.5319994 -11.7539992  -2.2359999  -6.0289996
 -10.8379993  -2.6439998  -6.2659996 -12.0989992  -1.5219999  -6.7069996
  -3.4129998  -5.0149997   2.3899998  -3.6849998  -5.2739997   3.3519998
  -2.4269998  -5.2909997   2.2349999  -2.9479998   5.0939997   2.1739999
  -2.4639998   4.2219997   2.4719998  -3.3089998   4.9919997   1.2079999
  -4.4229997   2.5159998 -11.6069992  -5.3829996   2.6689998 -11.3709993
  -4.1189997   1.6799999 -11.0979993   4.9499997   2.4279998   6.7279996
   5.1319997   2.5579998   7.6969995   4.8409997   3.3689998   6.4059996
  -2.7419998   0.1530000 -13.7359991  -3.2989998   1.0259999 -13.6859991
  -1.8579999   0.3680000 -13.2529991  -5.2859997  11.8409992   2.7899998
  -4.6499997  12.4829992   3.2699998  -5.8749996  11.4439992   3.4839998
  -0.2360000  -8.7899994  11.3249993  -1.0819999  -8.2099995  11.5689992
   0.4730000  -8.1379995  11.2579993  -4.6009997  -2.9459998  12.1259992
  -4.4459997  -2.5919998  13.0949991  -4.0469997  -2.3749998  11.4989992
  -8.2129995  -0.0460000  -9.6749994  -8.0869995   0.8409999  -9.1909994
  -7.4689995  -0.7480000 -10.0479993  -6.8039996  -2.0549999  -7.5189995
  -5.9569996  -2.5129998  -7.2369995  -6.6229996  -1.6919999  -8.4819994
   4.7959997  -1.3479999  10.7579993   4.5559997  -2.1589999  10.1729993
   5.4749996  -0.6950000  10.2849993   3.8419997   9.8869993   9.1799994
   4.5439997   9.1549994   8.8829994   2.9359998   9.8329994   8.6189994
  10.9319993   4.4089997  -0.7240000  11.7989992   3.9039997  -0.4870000
  10.3079993   3.6369998  -1.0839999   4.8879997  -3.0949998 -11.7669992
   4.3669997  -3.5959998 -12.4619992   4.8889997  -2.1199999 -12.0099992
  -5.0709997  -7.5839995   7.5869995  -4.1739997  -7.0829995   7.9049995
  -5.0449997  -7.5809995   6.5589996   2.7529998  -5.5109996   3.0109998
   2.4869998  -5.2289997   3.9659997   3.2339998  -6.4099996   3.0389998
  -3.4349998   4.5449997  -8.3879994  -4.2469997   4.9469997  -7.9519995
  -3.4939998   3.5529998  -8.0559995   9.1629994   0.1190000   9.8189994
   9.8029994   0.9309999   9.6549994   8.1949995   0.3400000   9.6179994
  -7.2039995  -0.5830000  -1.3399999  -6.7449996  -0.0080000  -1.9989999
  -7.3599995  -0.3130000  -0.3670000  -0.4510000   0.7090000 -12.1839992
  -0.9939999   0.9649999 -11.3719992   0.3280000   0.0120000 -11.8619992
  -4.5229997  -5.6749996   4.8229997  -5.1109997  -5.0489997   5.3559996
  -5.1499997  -6.3929996   4.4319997   9.7619994   0.9089999  -0.9489999
   9.3479994   1.8489999  -1.2329999  10.0219993   0.5260000  -1.8749999
  -5.5279996   5.9159996   9.3769994  -5.6879996   5.2329997  10.1119993
  -5.5329996   5.4379996   8.4349994   8.3499994   2.5289998  -4.4059997
   8.8879994   1.8989999  -5.0509997   8.4099994   3.4929998  -4.7709997
   2.8359998   6.5399996   7.2619995   2.1589999   5.9429996   7.6629995
   2.4979998   7.5129995   7.2849995   3.3449998  -9.7279994   8.5399994
   3.2459998  -8.7859994   8.1049995   2.4269998  -9.9499993   9.0459994
   4.9579997  -8.2499995  -3.9039997   5.1149997  -9.1209994  -3.3109998
   5.8959996  -7.9869995  -4.2599997   5.0299997  -7.9439995   2.2999998
   4.4089997  -8.0689995   1.5229999   5.0819997  -8.8259994   2.8419998
   2.3549998  -5.2019997  13.1329991   2.2389999  -4.1979997  12.9899991
   3.2959998  -5.2839997  13.4849991  -6.5459996 -11.9249992  -1.4979999
  -5.7999996 -11.9279992  -2.2579999  -6.9259995 -11.0129993  -1.5389999
   2.2059999  -4.9079997   5.6359996   3.2429998  -4.9219997   5.6279996
   1.9019999  -4.4549997   6.5009996  -2.3649998  -7.2669995  11.8649992
  -3.1919998  -7.3469995  11.2449993  -2.7419998  -6.9879995  12.7659992
   4.8029997 -10.7639993   3.6439998   4.7249997 -11.7339992   3.9489997
   5.8079996 -10.5679993   3.7339998  -2.0459999  11.8059992  -1.1789999
  -2.2919998  10.8329993  -1.0599999  -2.7459998  12.4979992  -0.8019999
  -2.9209998   1.1389999  -4.7649997  -2.9879998   0.5130000  -3.9539997
  -1.9239999   1.3329999  -4.9619997   9.0139994  11.5189992  -0.1160000
   9.9869993  11.6909992   0.0580000   8.8689994  10.5509993  -0.1500000
  -5.6009996  -6.5059996   1.5099999  -4.5699997  -6.1899996   1.6469999
  -6.0119996  -5.6639996   1.1509999  -3.3479998   1.3619999   5.0389997
  -2.6579998   1.1879999   5.7919996  -4.2349997   1.6309999   5.4679996
  -2.7689998  -7.0039995 -10.1899993  -3.1849998  -7.1889995 -11.1549993
  -1.8579999  -7.3699995 -10.1069993  -0.8289999 -13.1149991   3.3789998
  -1.3549999 -13.9599991   3.6909998   0.1660000 -13.2829991   3.2799998
  -8.0349995  10.3199993  -0.1390000  -8.7949994  10.9599993  -0.1150000
  -8.0989995   9.7109994  -0.9149999  -7.5159995  -3.0959998  -0.6650000
  -7.4939995  -2.0699999  -0.9169999  -6.5239996  -3.3259998  -0.8969999
   4.2509997   1.1489999   0.7789999   3.7549998   0.9569999  -0.0950000
   4.9339997   0.3990000   0.9419999   3.4099998  -7.4989995  -1.8599999
   4.0409997  -7.8319995  -2.5859998   2.4799998  -7.9049995  -2.2109999
  -4.0549997  -4.8819997  -5.0899997  -4.8529997  -4.2619997  -4.9029997
  -3.8529997  -5.3819996  -4.2129997   1.4109999   9.1729994   6.7749996
   1.0029999   9.4269994   7.6959995   0.7050000   9.4599994   6.0739996
  -9.0689994  -8.4829994  -3.2989998  -9.4219994  -9.1929994  -3.9999997
  -9.7379994  -7.7149995  -3.0409998   9.0339994  -5.4489996  -6.0889996
   8.9759994  -5.3379996  -7.1359995   9.9569993  -5.7489996  -5.8699996
   1.1579999  -2.4819998 -14.0489991   0.8079999  -2.5869998 -13.0829991
   2.1249999  -2.8779998 -14.2269991  -4.3259997   6.2129996  -2.8889998
  -4.5379997   7.1719995  -3.0779998  -4.0249997   5.8249996  -3.7319998
  -7.3299995   1.2969999   3.3049998  -8.0029995   1.9469999   2.9019998
  -6.6909996   1.8419999   3.9129997  -4.9349997  -3.0859998  -1.9969999
  -4.4769997  -2.1629999  -1.9359999  -5.3749996  -3.1029998  -2.9329998
   2.0659999  -6.7789996  -6.3249996   2.7219998  -6.2129996  -5.7899996
   2.4059998  -7.7659995  -6.3379996  -0.5020000  -6.9449995  -4.9099997
   0.4130000  -7.0849995  -5.3569996  -0.8739999  -6.0459996  -5.2549997
   9.4379994  -2.6819998  -3.3149998  10.0099993  -3.5219998  -3.2209998
   8.7659994  -2.8409998  -2.5419998   6.5579996   0.8259999   9.6589994
   6.7679996   0.9939999  10.6539993   6.4059996   1.7819999   9.2849994
   7.8559995   8.4129994  -8.7139994   7.8639995   8.3229995  -7.7049995
   6.9189995   8.6759994  -9.1279994  -1.6749999  11.8819992  -3.9439997
  -2.6029998  11.4039992  -3.9929997  -1.3939999  11.9009992  -2.9939998
  -3.8559997   5.1539997 -11.0779993  -3.8069997   5.1369997 -10.0399993
  -3.8079997   4.2149997 -11.4129992   9.7939994  -6.3759996   2.7459998
  10.7149993  -6.3199996   2.4299998   9.2439994  -6.9449995   2.0439999
 -11.4429992  -4.4669997   1.0889999 -12.4389992  -4.3799997   0.8109999
 -11.1879993  -5.3409996   1.5649999   0.8929999  13.5899991  -6.1609996
   1.0379999  14.1259991  -7.0229995   0.0340000  13.9359991  -5.7869996
  -8.7249994  -1.1479999   6.4579996  -8.3659994  -2.1149999   6.5949996
  -9.7399994  -1.1019999   6.7029996  -6.5709996 -11.1049993  -4.9789997
  -6.2919996 -11.7449992  -5.7499996  -5.7819996 -11.0149993  -4.3839997
   5.1759997  -3.5069998   1.0949999   5.0389997  -4.2009997   1.8419999
   4.3489997  -3.4919998   0.4740000   2.7719998  -9.2819994   4.9139997
   3.6859998  -9.4209994   4.5259997   2.5459998 -10.1819993   5.4509996
  -1.2329999  14.4889990  -4.6609997  -1.6059999  13.5919991  -4.3379997
  -2.1419999  14.8669990  -4.9469997  -3.7649998   2.0149999  -7.5299995
  -4.4139997   1.3619999  -8.0229995  -3.6649998   1.8259999  -6.5729996
  -4.0889997  -0.4640000  -2.3049998  -4.1159997  -0.0930000  -1.3429999
  -4.8609997  -0.0540000  -2.8489998   2.7219998   0.8259999   7.2759995
   2.6279998   0.4830000   8.2469995   3.6879998   1.1289999   7.1049995
   3.2309998   1.7579999   3.2159998   3.3779998   1.5309999   2.2189999
   4.0879997   1.4199999   3.6739998   1.3659999   8.0879995  -0.2990000
   2.2789998   7.5979995  -0.2880000   0.9929999   7.9999995  -1.2539999
  -1.4359999  -4.5209997  -5.8769996  -1.2899999  -3.4989998  -5.9479996
  -2.4329998  -4.6759997  -5.6449996   5.4769996  -6.8949995 -11.0739993
   6.0319996  -5.9989996 -10.9699993   4.4779997  -6.6269996 -11.0839993
   3.3839998   4.9489997 -10.4959993   3.0119998   4.1599997 -11.0189993
   2.6089998   5.2199997  -9.8739993   9.7659994   2.5429998   2.3779998
  10.1399993   2.3229998   1.4739999   8.7759994   2.4299998   2.2009999
   1.6289999   5.3159996  -8.0839995   0.5930000   5.4309996  -8.2889995
   1.9449999   4.3299997  -8.2389995   2.6359998  12.8559992   3.3939998
   2.0459999  13.6779991   3.5279998   2.7999998  12.6689992   2.4229998
  -3.6309998  12.7079992   5.4299996  -3.3949998  11.6869992   5.6749996
  -4.3859997  13.0689991   6.0499996   7.8589995  -9.2299994  -2.5379998
   7.7769995  -8.2539995  -2.1929999   6.9889995  -9.8089994  -2.4509998
   9.8539994   5.7639996  -3.0869998   8.8469994   5.8029996  -3.1299998
  10.1909993   5.6299996  -2.0869999  -5.8569996  -6.4029996  -9.8979993
  -6.7919996  -6.7379996  -9.6899994  -5.2899997  -6.5839996  -9.0559994
  -9.1069994  -4.9689997  -2.9609998  -8.1409995  -5.2689997  -2.9889998
  -9.2609994  -4.4079997  -3.7549998  10.9899993  -0.9619999   0.7520000
  10.4599993  -0.4680000   0.0950000  10.8869993  -1.9989999   0.6130000
   0.0780000   2.5739998  -7.7499995  -0.2360000   2.6389998  -6.7889996
   1.1259999   2.5039998  -7.7519995  -8.2399995  -9.8819993   2.4889998
  -7.2999995 -10.2999993   2.4429998  -8.8749994 -10.6609993   2.2549999
  -1.3029999  -1.7999999  -6.2499996  -0.9139999  -1.2289999  -7.0309995
  -1.7859999  -1.1589999  -5.6229996  -7.9469995   1.1109999   9.2659994
  -7.0159995   1.2579999   9.5639994  -8.0479995   1.3969999   8.2729995
   5.5669996   6.5049996  -5.6589996   5.9999996   6.2909996  -4.8129997
   4.6659997   5.9939996  -5.5359996   3.8389997  -5.3069996  -4.8239997
   3.8719997  -5.1569997  -3.8499997   4.4519997  -4.7169997  -5.2839997
  -2.3879998  -3.2059998   7.7949995  -2.7229998  -3.5689998   8.6719994
  -2.5689998  -2.2159999   8.0119995  -1.0259999  11.2989993  -9.2939994
  -1.0759999  10.2549993  -9.3639994  -0.0180000  11.5449992  -9.3659994
  -5.0599997   1.9909999   8.0809995  -5.5749996   2.2889998   7.1959995
  -5.1839997   1.0009999   8.0929995  -9.6929994  -5.9069996  -6.9929995
 -10.6029993  -6.1679996  -6.5719996  -9.6619994  -4.8799997  -7.0579995
   4.6599997  -5.2149997  -2.1809999   4.3399997  -6.1729996  -1.9149999
   5.4739996  -5.2959997  -2.7739998  -2.1959999  10.8619993   8.4489994
  -2.1219999  11.9229992   8.5839994  -2.5399998  10.6769993   7.4849995
  -1.7519999 -10.4929993   3.0179998  -1.3569999 -11.4309992   3.2139998
  -0.9809999  -9.8299994   3.2689998  -2.9429998   3.4199998   8.7679994
  -2.6179998   3.2179998   7.8319995  -3.9049997   2.9579998   8.8079994
  -4.4149997 -11.7409992  -3.0729998  -3.4939998 -11.2529993  -3.1209998
  -4.3609997 -12.7239992  -3.5089998   9.4099994   6.9859995  -5.5279996
   8.4469994   7.5099995  -5.4339996   9.7949994   6.7529996  -4.5719997
  -7.2049995   2.8049998 -11.0479993  -7.2349995   2.6049998 -10.0159993
  -8.1549995   3.1379998 -11.2059993  -4.5809997  -6.6259996  -7.6159995
  -3.7289998  -7.0769995  -7.2909995  -4.6559997  -5.8179996  -6.9759995
   1.1059999   6.1369996  -5.3159996   0.8939999   5.6489996  -6.1909996
   1.8199999   6.8249995  -5.5899996   6.4829996   4.6969997  -0.9009999
   5.6389996   4.3949997  -0.3660000   6.9859995   5.3779996  -0.2840000
  -3.7119998  -2.6219998  -7.9299995  -3.6749998  -3.4669998  -8.4869994
  -2.8749998  -2.5989998  -7.3389995  -4.3699997   8.7899994  -2.9949998
  -3.6159998   8.3699994  -2.4239998  -4.1619997   9.7709994  -3.1299998
  -3.5629998  -8.4749994  -3.5339998  -3.3389998  -7.8229995  -2.7469998
  -4.4749997  -8.8039994  -3.6329998   1.0979999   4.6409997   8.3879994
   0.1570000   4.9669997   8.5489994   1.6409999   4.9029997   9.2319994
   6.3209996  -0.9999999   1.2779999   5.8409996  -1.9059999   1.1349999
   6.9519995  -1.1619999   2.0819999  -0.4790000   4.1819997 -11.7209992
  -0.8959999   5.1029997 -11.6489992  -0.9279999   3.4779998 -11.1039993
   6.4549996   6.4039996  10.0289993   5.9509996   6.8739995   9.2469994
   5.7809996   6.3999996  10.8069993   2.3819998 -11.4689992   1.7169999
   2.9059998 -10.9889993   2.4559998   2.4789998 -12.4729992   1.8919999
   9.5089994   6.1479996   0.8939999  10.1999993   5.4879996   0.5340000
   8.7409994   5.6509996   1.3199999   3.6699998  13.3129991  -5.1579997
   2.6489998  13.3419991  -5.2959997   3.9839997  12.8989991  -6.0449996
  -8.4079994   1.8419999   6.7269996  -8.3209995   0.9229999   6.2979996
  -9.2689994   2.2389999   6.3929996  -7.8459995  -9.8909993   6.4209996
  -8.5589994  -9.3159994   5.9629996  -6.9789995  -9.8699993   5.7769996
   4.8929997   0.4150000  -8.7329994   5.4169996   1.2759999  -8.7779994
   5.5609996  -0.2810000  -8.3529994   3.6969998 -10.2279993  -8.3359995
   3.2939998 -10.0049993  -7.4019995   4.2559997  -9.3709994  -8.3849994
  -8.5039994  -4.9199997   1.1179999  -9.4329994  -4.8849997   0.8009999
  -8.0089995  -4.3369997   0.4580000  -7.3689995  -4.2949997 -10.5769993
  -6.8549995  -5.0069997 -10.0459993  -7.5589995  -4.5599997 -11.5409992
  -6.1789996  -9.0359994  -7.6529995  -6.0229996  -9.5739994  -6.8119996
  -5.8019996  -8.1509995  -7.5939995  -0.2480000  -1.5859999   6.9039995
   0.6560000  -1.8409999   6.4979996  -0.8099999  -2.4129998   7.1419995
  -3.5369998  14.2489991  -0.2740000  -4.1779997  13.9479991  -0.9599999
  -3.9509997  15.0779990   0.0590000   0.5110000   7.7709995  -2.9779998
   0.4970000   6.9609995  -3.6089998   1.1839999   8.4159994  -3.4249998
   1.7319999  -1.4909999  -5.4279996   2.0569999  -2.0569999  -6.2389996
   0.7130000  -1.5609999  -5.4529996  -1.7759999   2.2109999  -9.9099993
  -2.5019998   1.7579999  -9.3679994  -1.2179999   2.6549998  -9.1549994
  -8.8479994  -8.0089995   0.7779999  -8.5909994  -8.5949994   1.5929999
  -8.8339994  -7.1039995   1.2489999  -6.0119996 -10.8109993   1.1839999
  -5.2239997 -10.2839993   1.5459999  -6.1029996 -10.6629993   0.2060000
  -4.1609997   3.2739998  12.2179992  -3.1429998   3.1629998  12.0589992
  -4.5859997   2.3819998  12.1709992  -1.2429999   9.0569994  -6.1549996
  -0.7520000   8.3069995  -5.7969996  -0.5720000   9.8569993  -6.3829996
   9.7099994  -6.7349996   7.8179995   9.5829994  -5.7209996   7.9829995
   9.3649994  -7.3899995   8.4789994   3.1609998  -3.4929998  -0.8269999
   3.7229998  -4.2069997  -1.3349999   2.9779998  -2.7659998  -1.5309999
  -0.0440000  -6.1579996   4.7759997   0.8259999  -5.7039996   5.1019997
  -0.8529999  -5.5809996   5.1029997  -8.4669994  -7.1939995  -8.8459994
  -8.2719995  -8.1559995  -8.5209994  -8.9339994  -6.7359996  -7.9839995
