%VERSION  VERSION_STAMP = V0001.000  DATE = 07/24/24  13:27:00                  
%FLAG TITLE                                                                     
%FORMAT(20a4)                                                                   
default_name                                                                    
%FLAG POINTERS                                                                  
%FORMAT(10I8)                                                                   
    1212      12    1191      22     435      33      86      53       0       0
    1785     391      22      33      53      14      28      13      12       1
       0       0       0       0       0       0       0       0      42       0
       0
%FLAG ATOM_NAME                                                                 
%FORMAT(20a4)                                                                   
C4  H4  H5  H6  C5  H7  H8  H9  C6  O1  O2  O3  O4  C7  C8  C9  C10 H10 C11 O5  
C12 H11 C13 H12 C14 H13 N1  C15 H14 H15 C16 H16 H17 H18 C1  H1  H2  C2  H3  H19 
H20 H21 O   H1  H2  O   H1  H2  O   H1  H2  O   H1  H2  O   H1  H2  O   H1  H2  
O   H1  H2  O   H1  H2  O   H1  H2  O   H1  H2  O   H1  H2  O   H1  H2  O   H1  
H2  O   H1  H2  O   H1  H2  O   H1  H2  O   H1  H2  O   H1  H2  O   H1  H2  O   
H1  H2  O   H1  H2  O   H1  H2  O   H1  H2  O   H1  H2  O   H1  H2  O   H1  H2  
O   H1  H2  O   H1  H2  O   H1  H2  O   H1  H2  O   H1  H2  O   H1  H2  O   H1  
H2  O   H1  H2  O   H1  H2  O   H1  H2  O   H1  H2  O   H1  H2  O   H1  H2  O   
H1  H2  O   H1  H2  O   H1  H2  O   H1  H2  O   H1  H2  O   H1  H2  O   H1  H2  
O   H1  H2  O   H1  H2  O   H1  H2  O   H1  H2  O   H1  H2  O   H1  H2  O   H1  
H2  O   H1  H2  O   H1  H2  O   H1  H2  O   H1  H2  O   H1  H2  O   H1  H2  O   
H1  H2  O   H1  H2  O   H1  H2  O   H1  H2  O   H1  H2  O   H1  H2  O   H1  H2  
O   H1  H2  O   H1  H2  O   H1  H2  O   H1  H2  O   H1  H2  O   H1  H2  O   H1  
H2  O   H1  H2  O   H1  H2  O   H1  H2  O   H1  H2  O   H1  H2  O   H1  H2  O   
H1  H2  O   H1  H2  O   H1  H2  O   H1  H2  O   H1  H2  O   H1  H2  O   H1  H2  
O   H1  H2  O   H1  H2  O   H1  H2  O   H1  H2  O   H1  H2  O   H1  H2  O   H1  
H2  O   H1  H2  O   H1  H2  O   H1  H2  O   H1  H2  O   H1  H2  O   H1  H2  O   
H1  H2  O   H1  H2  O   H1  H2  O   H1  H2  O   H1  H2  O   H1  H2  O   H1  H2  
O   H1  H2  O   H1  H2  O   H1  H2  O   H1  H2  O   H1  H2  O   H1  H2  O   H1  
H2  O   H1  H2  O   H1  H2  O   H1  H2  O   H1  H2  O   H1  H2  O   H1  H2  O   
H1  H2  O   H1  H2  O   H1  H2  O   H1  H2  O   H1  H2  O   H1  H2  O   H1  H2  
O   H1  H2  O   H1  H2  O   H1  H2  O   H1  H2  O   H1  H2  O   H1  H2  O   H1  
H2  O   H1  H2  O   H1  H2  O   H1  H2  O   H1  H2  O   H1  H2  O   H1  H2  O   
H1  H2  O   H1  H2  O   H1  H2  O   H1  H2  O   H1  H2  O   H1  H2  O   H1  H2  
O   H1  H2  O   H1  H2  O   H1  H2  O   H1  H2  O   H1  H2  O   H1  H2  O   H1  
H2  O   H1  H2  O   H1  H2  O   H1  H2  O   H1  H2  O   H1  H2  O   H1  H2  O   
H1  H2  O   H1  H2  O   H1  H2  O   H1  H2  O   H1  H2  O   H1  H2  O   H1  H2  
O   H1  H2  O   H1  H2  O   H1  H2  O   H1  H2  O   H1  H2  O   H1  H2  O   H1  
H2  O   H1  H2  O   H1  H2  O   H1  H2  O   H1  H2  O   H1  H2  O   H1  H2  O   
H1  H2  O   H1  H2  O   H1  H2  O   H1  H2  O   H1  H2  O   H1  H2  O   H1  H2  
O   H1  H2  O   H1  H2  O   H1  H2  O   H1  H2  O   H1  H2  O   H1  H2  O   H1  
H2  O   H1  H2  O   H1  H2  O   H1  H2  O   H1  H2  O   H1  H2  O   H1  H2  O   
H1  H2  O   H1  H2  O   H1  H2  O   H1  H2  O   H1  H2  O   H1  H2  O   H1  H2  
O   H1  H2  O   H1  H2  O   H1  H2  O   H1  H2  O   H1  H2  O   H1  H2  O   H1  
H2  O   H1  H2  O   H1  H2  O   H1  H2  O   H1  H2  O   H1  H2  O   H1  H2  O   
H1  H2  O   H1  H2  O   H1  H2  O   H1  H2  O   H1  H2  O   H1  H2  O   H1  H2  
O   H1  H2  O   H1  H2  O   H1  H2  O   H1  H2  O   H1  H2  O   H1  H2  O   H1  
H2  O   H1  H2  O   H1  H2  O   H1  H2  O   H1  H2  O   H1  H2  O   H1  H2  O   
H1  H2  O   H1  H2  O   H1  H2  O   H1  H2  O   H1  H2  O   H1  H2  O   H1  H2  
O   H1  H2  O   H1  H2  O   H1  H2  O   H1  H2  O   H1  H2  O   H1  H2  O   H1  
H2  O   H1  H2  O   H1  H2  O   H1  H2  O   H1  H2  O   H1  H2  O   H1  H2  O   
H1  H2  O   H1  H2  O   H1  H2  O   H1  H2  O   H1  H2  O   H1  H2  O   H1  H2  
O   H1  H2  O   H1  H2  O   H1  H2  O   H1  H2  O   H1  H2  O   H1  H2  O   H1  
H2  O   H1  H2  O   H1  H2  O   H1  H2  O   H1  H2  O   H1  H2  O   H1  H2  O   
H1  H2  O   H1  H2  O   H1  H2  O   H1  H2  O   H1  H2  O   H1  H2  O   H1  H2  
O   H1  H2  O   H1  H2  O   H1  H2  O   H1  H2  O   H1  H2  O   H1  H2  O   H1  
H2  O   H1  H2  O   H1  H2  O   H1  H2  O   H1  H2  O   H1  H2  O   H1  H2  O   
H1  H2  O   H1  H2  O   H1  H2  O   H1  H2  O   H1  H2  O   H1  H2  O   H1  H2  
O   H1  H2  O   H1  H2  O   H1  H2  O   H1  H2  O   H1  H2  O   H1  H2  O   H1  
H2  O   H1  H2  O   H1  H2  O   H1  H2  O   H1  H2  O   H1  H2  O   H1  H2  O   
H1  H2  O   H1  H2  O   H1  H2  O   H1  H2  O   H1  H2  O   H1  H2  O   H1  H2  
O   H1  H2  O   H1  H2  O   H1  H2  O   H1  H2  O   H1  H2  O   H1  H2  O   H1  
H2  O   H1  H2  O   H1  H2  O   H1  H2  O   H1  H2  O   H1  H2  O   H1  H2  O   
H1  H2  O   H1  H2  O   H1  H2  O   H1  H2  O   H1  H2  O   H1  H2  O   H1  H2  
O   H1  H2  O   H1  H2  O   H1  H2  O   H1  H2  O   H1  H2  O   H1  H2  O   H1  
H2  O   H1  H2  O   H1  H2  O   H1  H2  O   H1  H2  O   H1  H2  O   H1  H2  O   
H1  H2  O   H1  H2  O   H1  H2  O   H1  H2  O   H1  H2  O   H1  H2  O   H1  H2  
O   H1  H2  O   H1  H2  O   H1  H2  O   H1  H2  O   H1  H2  O   H1  H2  O   H1  
H2  O   H1  H2  O   H1  H2  O   H1  H2  O   H1  H2  O   H1  H2  O   H1  H2  O   
H1  H2  O   H1  H2  O   H1  H2  O   H1  H2  O   H1  H2  O   H1  H2  O   H1  H2  
O   H1  H2  O   H1  H2  O   H1  H2  O   H1  H2  
%FLAG CHARGE                                                                    
%FORMAT(5E16.8)                                                                 
 -2.95848152E+00  1.16639120E+00  1.16639120E+00  1.16639120E+00 -2.95848152E+00
  1.16639120E+00  1.16639120E+00  1.16639120E+00  7.25653897E+00 -5.34922905E+00
 -7.30402629E+00 -1.02685029E+01 -9.56402882E+00  8.47282283E+00  1.05974337E+01
 -3.61707188E+00 -1.71096464E+00  1.84318565E+00  1.03771990E+01 -1.06231636E+01
 -4.83002106E+00  3.02747114E+00 -2.90397862E+00  3.32312796E+00 -2.66045580E-02
  2.75818199E+00 -6.66551689E+00 -3.64537112E-01  1.25883293E+00  1.25883293E+00
 -1.00714652E-01  2.94016811E-01  2.94016811E-01  2.94016811E-01 -3.64537112E-01
  1.25883293E+00  1.25883293E+00 -1.00714652E-01  2.94016811E-01  2.94016811E-01
  2.94016811E-01  8.25683391E+00 -1.49422860E+01  7.47114300E+00  7.47114300E+00
 -1.49422860E+01  7.47114300E+00  7.47114300E+00 -1.49422860E+01  7.47114300E+00
  7.47114300E+00 -1.49422860E+01  7.47114300E+00  7.47114300E+00 -1.49422860E+01
  7.47114300E+00  7.47114300E+00 -1.49422860E+01  7.47114300E+00  7.47114300E+00
 -1.49422860E+01  7.47114300E+00  7.47114300E+00 -1.49422860E+01  7.47114300E+00
  7.47114300E+00 -1.49422860E+01  7.47114300E+00  7.47114300E+00 -1.49422860E+01
  7.47114300E+00  7.47114300E+00 -1.49422860E+01  7.47114300E+00  7.47114300E+00
 -1.49422860E+01  7.47114300E+00  7.47114300E+00 -1.49422860E+01  7.47114300E+00
  7.47114300E+00 -1.49422860E+01  7.47114300E+00  7.47114300E+00 -1.49422860E+01
  7.47114300E+00  7.47114300E+00 -1.49422860E+01  7.47114300E+00  7.47114300E+00
 -1.49422860E+01  7.47114300E+00  7.47114300E+00 -1.49422860E+01  7.47114300E+00
  7.47114300E+00 -1.49422860E+01  7.47114300E+00  7.47114300E+00 -1.49422860E+01
  7.47114300E+00  7.47114300E+00 -1.49422860E+01  7.47114300E+00  7.47114300E+00
 -1.49422860E+01  7.47114300E+00  7.47114300E+00 -1.49422860E+01  7.47114300E+00
  7.47114300E+00 -1.49422860E+01  7.47114300E+00  7.47114300E+00 -1.49422860E+01
  7.47114300E+00  7.47114300E+00 -1.49422860E+01  7.47114300E+00  7.47114300E+00
 -1.49422860E+01  7.47114300E+00  7.47114300E+00 -1.49422860E+01  7.47114300E+00
  7.47114300E+00 -1.49422860E+01  7.47114300E+00  7.47114300E+00 -1.49422860E+01
  7.47114300E+00  7.47114300E+00 -1.49422860E+01  7.47114300E+00  7.47114300E+00
 -1.49422860E+01  7.47114300E+00  7.47114300E+00 -1.49422860E+01  7.47114300E+00
  7.47114300E+00 -1.49422860E+01  7.47114300E+00  7.47114300E+00 -1.49422860E+01
  7.47114300E+00  7.47114300E+00 -1.49422860E+01  7.47114300E+00  7.47114300E+00
 -1.49422860E+01  7.47114300E+00  7.47114300E+00 -1.49422860E+01  7.47114300E+00
  7.47114300E+00 -1.49422860E+01  7.47114300E+00  7.47114300E+00 -1.49422860E+01
  7.47114300E+00  7.47114300E+00 -1.49422860E+01  7.47114300E+00  7.47114300E+00
 -1.49422860E+01  7.47114300E+00  7.47114300E+00 -1.49422860E+01  7.47114300E+00
  7.47114300E+00 -1.49422860E+01  7.47114300E+00  7.47114300E+00 -1.49422860E+01
  7.47114300E+00  7.47114300E+00 -1.49422860E+01  7.47114300E+00  7.47114300E+00
 -1.49422860E+01  7.47114300E+00  7.47114300E+00 -1.49422860E+01  7.47114300E+00
  7.47114300E+00 -1.49422860E+01  7.47114300E+00  7.47114300E+00 -1.49422860E+01
  7.47114300E+00  7.47114300E+00 -1.49422860E+01  7.47114300E+00  7.47114300E+00
 -1.49422860E+01  7.47114300E+00  7.47114300E+00 -1.49422860E+01  7.47114300E+00
  7.47114300E+00 -1.49422860E+01  7.47114300E+00  7.47114300E+00 -1.49422860E+01
  7.47114300E+00  7.47114300E+00 -1.49422860E+01  7.47114300E+00  7.47114300E+00
 -1.49422860E+01  7.47114300E+00  7.47114300E+00 -1.49422860E+01  7.47114300E+00
  7.47114300E+00 -1.49422860E+01  7.47114300E+00  7.47114300E+00 -1.49422860E+01
  7.47114300E+00  7.47114300E+00 -1.49422860E+01  7.47114300E+00  7.47114300E+00
 -1.49422860E+01  7.47114300E+00  7.47114300E+00 -1.49422860E+01  7.47114300E+00
  7.47114300E+00 -1.49422860E+01  7.47114300E+00  7.47114300E+00 -1.49422860E+01
  7.47114300E+00  7.47114300E+00 -1.49422860E+01  7.47114300E+00  7.47114300E+00
 -1.49422860E+01  7.47114300E+00  7.47114300E+00 -1.49422860E+01  7.47114300E+00
  7.47114300E+00 -1.49422860E+01  7.47114300E+00  7.47114300E+00 -1.49422860E+01
  7.47114300E+00  7.47114300E+00 -1.49422860E+01  7.47114300E+00  7.47114300E+00
 -1.49422860E+01  7.47114300E+00  7.47114300E+00 -1.49422860E+01  7.47114300E+00
  7.47114300E+00 -1.49422860E+01  7.47114300E+00  7.47114300E+00 -1.49422860E+01
  7.47114300E+00  7.47114300E+00 -1.49422860E+01  7.47114300E+00  7.47114300E+00
 -1.49422860E+01  7.47114300E+00  7.47114300E+00 -1.49422860E+01  7.47114300E+00
  7.47114300E+00 -1.49422860E+01  7.47114300E+00  7.47114300E+00 -1.49422860E+01
  7.47114300E+00  7.47114300E+00 -1.49422860E+01  7.47114300E+00  7.47114300E+00
 -1.49422860E+01  7.47114300E+00  7.47114300E+00 -1.49422860E+01  7.47114300E+00
  7.47114300E+00 -1.49422860E+01  7.47114300E+00  7.47114300E+00 -1.49422860E+01
  7.47114300E+00  7.47114300E+00 -1.49422860E+01  7.47114300E+00  7.47114300E+00
 -1.49422860E+01  7.47114300E+00  7.47114300E+00 -1.49422860E+01  7.47114300E+00
  7.47114300E+00 -1.49422860E+01  7.47114300E+00  7.47114300E+00 -1.49422860E+01
  7.47114300E+00  7.47114300E+00 -1.49422860E+01  7.47114300E+00  7.47114300E+00
 -1.49422860E+01  7.47114300E+00  7.47114300E+00 -1.49422860E+01  7.47114300E+00
  7.47114300E+00 -1.49422860E+01  7.47114300E+00  7.47114300E+00 -1.49422860E+01
  7.47114300E+00  7.47114300E+00 -1.49422860E+01  7.47114300E+00  7.47114300E+00
 -1.49422860E+01  7.47114300E+00  7.47114300E+00 -1.49422860E+01  7.47114300E+00
  7.47114300E+00 -1.49422860E+01  7.47114300E+00  7.47114300E+00 -1.49422860E+01
  7.47114300E+00  7.47114300E+00 -1.49422860E+01  7.47114300E+00  7.47114300E+00
 -1.49422860E+01  7.47114300E+00  7.47114300E+00 -1.49422860E+01  7.47114300E+00
  7.47114300E+00 -1.49422860E+01  7.47114300E+00  7.47114300E+00 -1.49422860E+01
  7.47114300E+00  7.47114300E+00 -1.49422860E+01  7.47114300E+00  7.47114300E+00
 -1.49422860E+01  7.47114300E+00  7.47114300E+00 -1.49422860E+01  7.47114300E+00
  7.47114300E+00 -1.49422860E+01  7.47114300E+00  7.47114300E+00 -1.49422860E+01
  7.47114300E+00  7.47114300E+00 -1.49422860E+01  7.47114300E+00  7.47114300E+00
 -1.49422860E+01  7.47114300E+00  7.47114300E+00 -1.49422860E+01  7.47114300E+00
  7.47114300E+00 -1.49422860E+01  7.47114300E+00  7.47114300E+00 -1.49422860E+01
  7.47114300E+00  7.47114300E+00 -1.49422860E+01  7.47114300E+00  7.47114300E+00
 -1.49422860E+01  7.47114300E+00  7.47114300E+00 -1.49422860E+01  7.47114300E+00
  7.47114300E+00 -1.49422860E+01  7.47114300E+00  7.47114300E+00 -1.49422860E+01
  7.47114300E+00  7.47114300E+00 -1.49422860E+01  7.47114300E+00  7.47114300E+00
 -1.49422860E+01  7.47114300E+00  7.47114300E+00 -1.49422860E+01  7.47114300E+00
  7.47114300E+00 -1.49422860E+01  7.47114300E+00  7.47114300E+00 -1.49422860E+01
  7.47114300E+00  7.47114300E+00 -1.49422860E+01  7.47114300E+00  7.47114300E+00
 -1.49422860E+01  7.47114300E+00  7.47114300E+00 -1.49422860E+01  7.47114300E+00
  7.47114300E+00 -1.49422860E+01  7.47114300E+00  7.47114300E+00 -1.49422860E+01
  7.47114300E+00  7.47114300E+00 -1.49422860E+01  7.47114300E+00  7.47114300E+00
 -1.49422860E+01  7.47114300E+00  7.47114300E+00 -1.49422860E+01  7.47114300E+00
  7.47114300E+00 -1.49422860E+01  7.47114300E+00  7.47114300E+00 -1.49422860E+01
  7.47114300E+00  7.47114300E+00 -1.49422860E+01  7.47114300E+00  7.47114300E+00
 -1.49422860E+01  7.47114300E+00  7.47114300E+00 -1.49422860E+01  7.47114300E+00
  7.47114300E+00 -1.49422860E+01  7.47114300E+00  7.47114300E+00 -1.49422860E+01
  7.47114300E+00  7.47114300E+00 -1.49422860E+01  7.47114300E+00  7.47114300E+00
 -1.49422860E+01  7.47114300E+00  7.47114300E+00 -1.49422860E+01  7.47114300E+00
  7.47114300E+00 -1.49422860E+01  7.47114300E+00  7.47114300E+00 -1.49422860E+01
  7.47114300E+00  7.47114300E+00 -1.49422860E+01  7.47114300E+00  7.47114300E+00
 -1.49422860E+01  7.47114300E+00  7.47114300E+00 -1.49422860E+01  7.47114300E+00
  7.47114300E+00 -1.49422860E+01  7.47114300E+00  7.47114300E+00 -1.49422860E+01
  7.47114300E+00  7.47114300E+00 -1.49422860E+01  7.47114300E+00  7.47114300E+00
 -1.49422860E+01  7.47114300E+00  7.47114300E+00 -1.49422860E+01  7.47114300E+00
  7.47114300E+00 -1.49422860E+01  7.47114300E+00  7.47114300E+00 -1.49422860E+01
  7.47114300E+00  7.47114300E+00 -1.49422860E+01  7.47114300E+00  7.47114300E+00
 -1.49422860E+01  7.47114300E+00  7.47114300E+00 -1.49422860E+01  7.47114300E+00
  7.47114300E+00 -1.49422860E+01  7.47114300E+00  7.47114300E+00 -1.49422860E+01
  7.47114300E+00  7.47114300E+00 -1.49422860E+01  7.47114300E+00  7.47114300E+00
 -1.49422860E+01  7.47114300E+00  7.47114300E+00 -1.49422860E+01  7.47114300E+00
  7.47114300E+00 -1.49422860E+01  7.47114300E+00  7.47114300E+00 -1.49422860E+01
  7.47114300E+00  7.47114300E+00 -1.49422860E+01  7.47114300E+00  7.47114300E+00
 -1.49422860E+01  7.47114300E+00  7.47114300E+00 -1.49422860E+01  7.47114300E+00
  7.47114300E+00 -1.49422860E+01  7.47114300E+00  7.47114300E+00 -1.49422860E+01
  7.47114300E+00  7.47114300E+00 -1.49422860E+01  7.47114300E+00  7.47114300E+00
 -1.49422860E+01  7.47114300E+00  7.47114300E+00 -1.49422860E+01  7.47114300E+00
  7.47114300E+00 -1.49422860E+01  7.47114300E+00  7.47114300E+00 -1.49422860E+01
  7.47114300E+00  7.47114300E+00 -1.49422860E+01  7.47114300E+00  7.47114300E+00
 -1.49422860E+01  7.47114300E+00  7.47114300E+00 -1.49422860E+01  7.47114300E+00
  7.47114300E+00 -1.49422860E+01  7.47114300E+00  7.47114300E+00 -1.49422860E+01
  7.47114300E+00  7.47114300E+00 -1.49422860E+01  7.47114300E+00  7.47114300E+00
 -1.49422860E+01  7.47114300E+00  7.47114300E+00 -1.49422860E+01  7.47114300E+00
  7.47114300E+00 -1.49422860E+01  7.47114300E+00  7.47114300E+00 -1.49422860E+01
  7.47114300E+00  7.47114300E+00 -1.49422860E+01  7.47114300E+00  7.47114300E+00
 -1.49422860E+01  7.47114300E+00  7.47114300E+00 -1.49422860E+01  7.47114300E+00
  7.47114300E+00 -1.49422860E+01  7.47114300E+00  7.47114300E+00 -1.49422860E+01
  7.47114300E+00  7.47114300E+00 -1.49422860E+01  7.47114300E+00  7.47114300E+00
 -1.49422860E+01  7.47114300E+00  7.47114300E+00 -1.49422860E+01  7.47114300E+00
  7.47114300E+00 -1.49422860E+01  7.47114300E+00  7.47114300E+00 -1.49422860E+01
  7.47114300E+00  7.47114300E+00 -1.49422860E+01  7.47114300E+00  7.47114300E+00
 -1.49422860E+01  7.47114300E+00  7.47114300E+00 -1.49422860E+01  7.47114300E+00
  7.47114300E+00 -1.49422860E+01  7.47114300E+00  7.47114300E+00 -1.49422860E+01
  7.47114300E+00  7.47114300E+00 -1.49422860E+01  7.47114300E+00  7.47114300E+00
 -1.49422860E+01  7.47114300E+00  7.47114300E+00 -1.49422860E+01  7.47114300E+00
  7.47114300E+00 -1.49422860E+01  7.47114300E+00  7.47114300E+00 -1.49422860E+01
  7.47114300E+00  7.47114300E+00 -1.49422860E+01  7.47114300E+00  7.47114300E+00
 -1.49422860E+01  7.47114300E+00  7.47114300E+00 -1.49422860E+01  7.47114300E+00
  7.47114300E+00 -1.49422860E+01  7.47114300E+00  7.47114300E+00 -1.49422860E+01
  7.47114300E+00  7.47114300E+00 -1.49422860E+01  7.47114300E+00  7.47114300E+00
 -1.49422860E+01  7.47114300E+00  7.47114300E+00 -1.49422860E+01  7.47114300E+00
  7.47114300E+00 -1.49422860E+01  7.47114300E+00  7.47114300E+00 -1.49422860E+01
  7.47114300E+00  7.47114300E+00 -1.49422860E+01  7.47114300E+00  7.47114300E+00
 -1.49422860E+01  7.47114300E+00  7.47114300E+00 -1.49422860E+01  7.47114300E+00
  7.47114300E+00 -1.49422860E+01  7.47114300E+00  7.47114300E+00 -1.49422860E+01
  7.47114300E+00  7.47114300E+00 -1.49422860E+01  7.47114300E+00  7.47114300E+00
 -1.49422860E+01  7.47114300E+00  7.47114300E+00 -1.49422860E+01  7.47114300E+00
  7.47114300E+00 -1.49422860E+01  7.47114300E+00  7.47114300E+00 -1.49422860E+01
  7.47114300E+00  7.47114300E+00 -1.49422860E+01  7.47114300E+00  7.47114300E+00
 -1.49422860E+01  7.47114300E+00  7.47114300E+00 -1.49422860E+01  7.47114300E+00
  7.47114300E+00 -1.49422860E+01  7.47114300E+00  7.47114300E+00 -1.49422860E+01
  7.47114300E+00  7.47114300E+00 -1.49422860E+01  7.47114300E+00  7.47114300E+00
 -1.49422860E+01  7.47114300E+00  7.47114300E+00 -1.49422860E+01  7.47114300E+00
  7.47114300E+00 -1.49422860E+01  7.47114300E+00  7.47114300E+00 -1.49422860E+01
  7.47114300E+00  7.47114300E+00 -1.49422860E+01  7.47114300E+00  7.47114300E+00
 -1.49422860E+01  7.47114300E+00  7.47114300E+00 -1.49422860E+01  7.47114300E+00
  7.47114300E+00 -1.49422860E+01  7.47114300E+00  7.47114300E+00 -1.49422860E+01
  7.47114300E+00  7.47114300E+00 -1.49422860E+01  7.47114300E+00  7.47114300E+00
 -1.49422860E+01  7.47114300E+00  7.47114300E+00 -1.49422860E+01  7.47114300E+00
  7.47114300E+00 -1.49422860E+01  7.47114300E+00  7.47114300E+00 -1.49422860E+01
  7.47114300E+00  7.47114300E+00 -1.49422860E+01  7.47114300E+00  7.47114300E+00
 -1.49422860E+01  7.47114300E+00  7.47114300E+00 -1.49422860E+01  7.47114300E+00
  7.47114300E+00 -1.49422860E+01  7.47114300E+00  7.47114300E+00 -1.49422860E+01
  7.47114300E+00  7.47114300E+00 -1.49422860E+01  7.47114300E+00  7.47114300E+00
 -1.49422860E+01  7.47114300E+00  7.47114300E+00 -1.49422860E+01  7.47114300E+00
  7.47114300E+00 -1.49422860E+01  7.47114300E+00  7.47114300E+00 -1.49422860E+01
  7.47114300E+00  7.47114300E+00 -1.49422860E+01  7.47114300E+00  7.47114300E+00
 -1.49422860E+01  7.47114300E+00  7.47114300E+00 -1.49422860E+01  7.47114300E+00
  7.47114300E+00 -1.49422860E+01  7.47114300E+00  7.47114300E+00 -1.49422860E+01
  7.47114300E+00  7.47114300E+00 -1.49422860E+01  7.47114300E+00  7.47114300E+00
 -1.49422860E+01  7.47114300E+00  7.47114300E+00 -1.49422860E+01  7.47114300E+00
  7.47114300E+00 -1.49422860E+01  7.47114300E+00  7.47114300E+00 -1.49422860E+01
  7.47114300E+00  7.47114300E+00 -1.49422860E+01  7.47114300E+00  7.47114300E+00
 -1.49422860E+01  7.47114300E+00  7.47114300E+00 -1.49422860E+01  7.47114300E+00
  7.47114300E+00 -1.49422860E+01  7.47114300E+00  7.47114300E+00 -1.49422860E+01
  7.47114300E+00  7.47114300E+00 -1.49422860E+01  7.47114300E+00  7.47114300E+00
 -1.49422860E+01  7.47114300E+00  7.47114300E+00 -1.49422860E+01  7.47114300E+00
  7.47114300E+00 -1.49422860E+01  7.47114300E+00  7.47114300E+00 -1.49422860E+01
  7.47114300E+00  7.47114300E+00 -1.49422860E+01  7.47114300E+00  7.47114300E+00
 -1.49422860E+01  7.47114300E+00  7.47114300E+00 -1.49422860E+01  7.47114300E+00
  7.47114300E+00 -1.49422860E+01  7.47114300E+00  7.47114300E+00 -1.49422860E+01
  7.47114300E+00  7.47114300E+00 -1.49422860E+01  7.47114300E+00  7.47114300E+00
 -1.49422860E+01  7.47114300E+00  7.47114300E+00 -1.49422860E+01  7.47114300E+00
  7.47114300E+00 -1.49422860E+01  7.47114300E+00  7.47114300E+00 -1.49422860E+01
  7.47114300E+00  7.47114300E+00 -1.49422860E+01  7.47114300E+00  7.47114300E+00
 -1.49422860E+01  7.47114300E+00  7.47114300E+00 -1.49422860E+01  7.47114300E+00
  7.47114300E+00 -1.49422860E+01  7.47114300E+00  7.47114300E+00 -1.49422860E+01
  7.47114300E+00  7.47114300E+00 -1.49422860E+01  7.47114300E+00  7.47114300E+00
 -1.49422860E+01  7.47114300E+00  7.47114300E+00 -1.49422860E+01  7.47114300E+00
  7.47114300E+00 -1.49422860E+01  7.47114300E+00  7.47114300E+00 -1.49422860E+01
  7.47114300E+00  7.47114300E+00 -1.49422860E+01  7.47114300E+00  7.47114300E+00
 -1.49422860E+01  7.47114300E+00  7.47114300E+00 -1.49422860E+01  7.47114300E+00
  7.47114300E+00 -1.49422860E+01  7.47114300E+00  7.47114300E+00 -1.49422860E+01
  7.47114300E+00  7.47114300E+00 -1.49422860E+01  7.47114300E+00  7.47114300E+00
 -1.49422860E+01  7.47114300E+00  7.47114300E+00 -1.49422860E+01  7.47114300E+00
  7.47114300E+00 -1.49422860E+01  7.47114300E+00  7.47114300E+00 -1.49422860E+01
  7.47114300E+00  7.47114300E+00 -1.49422860E+01  7.47114300E+00  7.47114300E+00
 -1.49422860E+01  7.47114300E+00  7.47114300E+00 -1.49422860E+01  7.47114300E+00
  7.47114300E+00 -1.49422860E+01  7.47114300E+00  7.47114300E+00 -1.49422860E+01
  7.47114300E+00  7.47114300E+00 -1.49422860E+01  7.47114300E+00  7.47114300E+00
 -1.49422860E+01  7.47114300E+00  7.47114300E+00 -1.49422860E+01  7.47114300E+00
  7.47114300E+00 -1.49422860E+01  7.47114300E+00  7.47114300E+00 -1.49422860E+01
  7.47114300E+00  7.47114300E+00 -1.49422860E+01  7.47114300E+00  7.47114300E+00
 -1.49422860E+01  7.47114300E+00  7.47114300E+00 -1.49422860E+01  7.47114300E+00
  7.47114300E+00 -1.49422860E+01  7.47114300E+00  7.47114300E+00 -1.49422860E+01
  7.47114300E+00  7.47114300E+00 -1.49422860E+01  7.47114300E+00  7.47114300E+00
 -1.49422860E+01  7.47114300E+00  7.47114300E+00 -1.49422860E+01  7.47114300E+00
  7.47114300E+00 -1.49422860E+01  7.47114300E+00  7.47114300E+00 -1.49422860E+01
  7.47114300E+00  7.47114300E+00 -1.49422860E+01  7.47114300E+00  7.47114300E+00
 -1.49422860E+01  7.47114300E+00  7.47114300E+00 -1.49422860E+01  7.47114300E+00
  7.47114300E+00 -1.49422860E+01  7.47114300E+00  7.47114300E+00 -1.49422860E+01
  7.47114300E+00  7.47114300E+00 -1.49422860E+01  7.47114300E+00  7.47114300E+00
 -1.49422860E+01  7.47114300E+00  7.47114300E+00 -1.49422860E+01  7.47114300E+00
  7.47114300E+00 -1.49422860E+01  7.47114300E+00  7.47114300E+00 -1.49422860E+01
  7.47114300E+00  7.47114300E+00 -1.49422860E+01  7.47114300E+00  7.47114300E+00
 -1.49422860E+01  7.47114300E+00  7.47114300E+00 -1.49422860E+01  7.47114300E+00
  7.47114300E+00 -1.49422860E+01  7.47114300E+00  7.47114300E+00 -1.49422860E+01
  7.47114300E+00  7.47114300E+00 -1.49422860E+01  7.47114300E+00  7.47114300E+00
 -1.49422860E+01  7.47114300E+00  7.47114300E+00 -1.49422860E+01  7.47114300E+00
  7.47114300E+00 -1.49422860E+01  7.47114300E+00  7.47114300E+00 -1.49422860E+01
  7.47114300E+00  7.47114300E+00 -1.49422860E+01  7.47114300E+00  7.47114300E+00
 -1.49422860E+01  7.47114300E+00  7.47114300E+00 -1.49422860E+01  7.47114300E+00
  7.47114300E+00 -1.49422860E+01  7.47114300E+00  7.47114300E+00 -1.49422860E+01
  7.47114300E+00  7.47114300E+00 -1.49422860E+01  7.47114300E+00  7.47114300E+00
 -1.49422860E+01  7.47114300E+00  7.47114300E+00 -1.49422860E+01  7.47114300E+00
  7.47114300E+00 -1.49422860E+01  7.47114300E+00  7.47114300E+00 -1.49422860E+01
  7.47114300E+00  7.47114300E+00 -1.49422860E+01  7.47114300E+00  7.47114300E+00
 -1.49422860E+01  7.47114300E+00  7.47114300E+00 -1.49422860E+01  7.47114300E+00
  7.47114300E+00 -1.49422860E+01  7.47114300E+00  7.47114300E+00 -1.49422860E+01
  7.47114300E+00  7.47114300E+00 -1.49422860E+01  7.47114300E+00  7.47114300E+00
 -1.49422860E+01  7.47114300E+00  7.47114300E+00 -1.49422860E+01  7.47114300E+00
  7.47114300E+00 -1.49422860E+01  7.47114300E+00  7.47114300E+00 -1.49422860E+01
  7.47114300E+00  7.47114300E+00 -1.49422860E+01  7.47114300E+00  7.47114300E+00
 -1.49422860E+01  7.47114300E+00  7.47114300E+00 -1.49422860E+01  7.47114300E+00
  7.47114300E+00 -1.49422860E+01  7.47114300E+00  7.47114300E+00 -1.49422860E+01
  7.47114300E+00  7.47114300E+00 -1.49422860E+01  7.47114300E+00  7.47114300E+00
 -1.49422860E+01  7.47114300E+00  7.47114300E+00 -1.49422860E+01  7.47114300E+00
  7.47114300E+00 -1.49422860E+01  7.47114300E+00  7.47114300E+00 -1.49422860E+01
  7.47114300E+00  7.47114300E+00 -1.49422860E+01  7.47114300E+00  7.47114300E+00
 -1.49422860E+01  7.47114300E+00  7.47114300E+00 -1.49422860E+01  7.47114300E+00
  7.47114300E+00 -1.49422860E+01  7.47114300E+00  7.47114300E+00 -1.49422860E+01
  7.47114300E+00  7.47114300E+00 -1.49422860E+01  7.47114300E+00  7.47114300E+00
 -1.49422860E+01  7.47114300E+00  7.47114300E+00 -1.49422860E+01  7.47114300E+00
  7.47114300E+00 -1.49422860E+01  7.47114300E+00  7.47114300E+00 -1.49422860E+01
  7.47114300E+00  7.47114300E+00 -1.49422860E+01  7.47114300E+00  7.47114300E+00
 -1.49422860E+01  7.47114300E+00  7.47114300E+00 -1.49422860E+01  7.47114300E+00
  7.47114300E+00 -1.49422860E+01  7.47114300E+00  7.47114300E+00 -1.49422860E+01
  7.47114300E+00  7.47114300E+00
%FLAG ATOMIC_NUMBER                                                             
%FORMAT(10I8)                                                                   
       6       1       1       1       6       1       1       1       6       8
       8       8       8       6       6       6       6       1       6       8
       6       1       6       1       6       1       7       6       1       1
       6       1       1       1       6       1       1       6       1       1
       1       1       8       1       1       8       1       1       8       1
       1       8       1       1       8       1       1       8       1       1
       8       1       1       8       1       1       8       1       1       8
       1       1       8       1       1       8       1       1       8       1
       1       8       1       1       8       1       1       8       1       1
       8       1       1       8       1       1       8       1       1       8
       1       1       8       1       1       8       1       1       8       1
       1       8       1       1       8       1       1       8       1       1
       8       1       1       8       1       1       8       1       1       8
       1       1       8       1       1       8       1       1       8       1
       1       8       1       1       8       1       1       8       1       1
       8       1       1       8       1       1       8       1       1       8
       1       1       8       1       1       8       1       1       8       1
       1       8       1       1       8       1       1       8       1       1
       8       1       1       8       1       1       8       1       1       8
       1       1       8       1       1       8       1       1       8       1
       1       8       1       1       8       1       1       8       1       1
       8       1       1       8       1       1       8       1       1       8
       1       1       8       1       1       8       1       1       8       1
       1       8       1       1       8       1       1       8       1       1
       8       1       1       8       1       1       8       1       1       8
       1       1       8       1       1       8       1       1       8       1
       1       8       1       1       8       1       1       8       1       1
       8       1       1       8       1       1       8       1       1       8
       1       1       8       1       1       8       1       1       8       1
       1       8       1       1       8       1       1       8       1       1
       8       1       1       8       1       1       8       1       1       8
       1       1       8       1       1       8       1       1       8       1
       1       8       1       1       8       1       1       8       1       1
       8       1       1       8       1       1       8       1       1       8
       1       1       8       1       1       8       1       1       8       1
       1       8       1       1       8       1       1       8       1       1
       8       1       1       8       1       1       8       1       1       8
       1       1       8       1       1       8       1       1       8       1
       1       8       1       1       8       1       1       8       1       1
       8       1       1       8       1       1       8       1       1       8
       1       1       8       1       1       8       1       1       8       1
       1       8       1       1       8       1       1       8       1       1
       8       1       1       8       1       1       8       1       1       8
       1       1       8       1       1       8       1       1       8       1
       1       8       1       1       8       1       1       8       1       1
       8       1       1       8       1       1       8       1       1       8
       1       1       8       1       1       8       1       1       8       1
       1       8       1       1       8       1       1       8       1       1
       8       1       1       8       1       1       8       1       1       8
       1       1       8       1       1       8       1       1       8       1
       1       8       1       1       8       1       1       8       1       1
       8       1       1       8       1       1       8       1       1       8
       1       1       8       1       1       8       1       1       8       1
       1       8       1       1       8       1       1       8       1       1
       8       1       1       8       1       1       8       1       1       8
       1       1       8       1       1       8       1       1       8       1
       1       8       1       1       8       1       1       8       1       1
       8       1       1       8       1       1       8       1       1       8
       1       1       8       1       1       8       1       1       8       1
       1       8       1       1       8       1       1       8       1       1
       8       1       1       8       1       1       8       1       1       8
       1       1       8       1       1       8       1       1       8       1
       1       8       1       1       8       1       1       8       1       1
       8       1       1       8       1       1       8       1       1       8
       1       1       8       1       1       8       1       1       8       1
       1       8       1       1       8       1       1       8       1       1
       8       1       1       8       1       1       8       1       1       8
       1       1       8       1       1       8       1       1       8       1
       1       8       1       1       8       1       1       8       1       1
       8       1       1       8       1       1       8       1       1       8
       1       1       8       1       1       8       1       1       8       1
       1       8       1       1       8       1       1       8       1       1
       8       1       1       8       1       1       8       1       1       8
       1       1       8       1       1       8       1       1       8       1
       1       8       1       1       8       1       1       8       1       1
       8       1       1       8       1       1       8       1       1       8
       1       1       8       1       1       8       1       1       8       1
       1       8       1       1       8       1       1       8       1       1
       8       1       1       8       1       1       8       1       1       8
       1       1       8       1       1       8       1       1       8       1
       1       8       1       1       8       1       1       8       1       1
       8       1       1       8       1       1       8       1       1       8
       1       1       8       1       1       8       1       1       8       1
       1       8       1       1       8       1       1       8       1       1
       8       1       1       8       1       1       8       1       1       8
       1       1       8       1       1       8       1       1       8       1
       1       8       1       1       8       1       1       8       1       1
       8       1       1       8       1       1       8       1       1       8
       1       1       8       1       1       8       1       1       8       1
       1       8       1       1       8       1       1       8       1       1
       8       1       1       8       1       1       8       1       1       8
       1       1       8       1       1       8       1       1       8       1
       1       8       1       1       8       1       1       8       1       1
       8       1       1       8       1       1       8       1       1       8
       1       1       8       1       1       8       1       1       8       1
       1       8       1       1       8       1       1       8       1       1
       8       1       1       8       1       1       8       1       1       8
       1       1       8       1       1       8       1       1       8       1
       1       8       1       1       8       1       1       8       1       1
       8       1       1       8       1       1       8       1       1       8
       1       1       8       1       1       8       1       1       8       1
       1       8       1       1       8       1       1       8       1       1
       8       1       1       8       1       1       8       1       1       8
       1       1       8       1       1       8       1       1       8       1
       1       8       1       1       8       1       1       8       1       1
       8       1       1       8       1       1       8       1       1       8
       1       1       8       1       1       8       1       1       8       1
       1       8       1       1       8       1       1       8       1       1
       8       1       1       8       1       1       8       1       1       8
       1       1       8       1       1       8       1       1       8       1
       1       8       1       1       8       1       1       8       1       1
       8       1       1       8       1       1       8       1       1       8
       1       1       8       1       1       8       1       1       8       1
       1       8       1       1       8       1       1       8       1       1
       8       1       1       8       1       1       8       1       1       8
       1       1       8       1       1       8       1       1       8       1
       1       8       1       1       8       1       1       8       1       1
       8       1       1       8       1       1       8       1       1       8
       1       1       8       1       1       8       1       1       8       1
       1       8       1       1       8       1       1       8       1       1
       8       1       1       8       1       1       8       1       1       8
       1       1
%FLAG MASS                                                                      
%FORMAT(5E16.8)                                                                 
  1.20100000E+01  1.00800000E+00  1.00800000E+00  1.00800000E+00  1.20100000E+01
  1.00800000E+00  1.00800000E+00  1.00800000E+00  1.20100000E+01  1.60000000E+01
  1.60000000E+01  1.60000000E+01  1.60000000E+01  1.20100000E+01  1.20100000E+01
  1.20100000E+01  1.20100000E+01  1.00800000E+00  1.20100000E+01  1.60000000E+01
  1.20100000E+01  1.00800000E+00  1.20100000E+01  1.00800000E+00  1.20100000E+01
  1.00800000E+00  1.40100000E+01  1.20100000E+01  1.00800000E+00  1.00800000E+00
  1.20100000E+01  1.00800000E+00  1.00800000E+00  1.00800000E+00  1.20100000E+01
  1.00800000E+00  1.00800000E+00  1.20100000E+01  1.00800000E+00  1.00800000E+00
  1.00800000E+00  1.00800000E+00  1.60000000E+01  1.00800000E+00  1.00800000E+00
  1.60000000E+01  1.00800000E+00  1.00800000E+00  1.60000000E+01  1.00800000E+00
  1.00800000E+00  1.60000000E+01  1.00800000E+00  1.00800000E+00  1.60000000E+01
  1.00800000E+00  1.00800000E+00  1.60000000E+01  1.00800000E+00  1.00800000E+00
  1.60000000E+01  1.00800000E+00  1.00800000E+00  1.60000000E+01  1.00800000E+00
  1.00800000E+00  1.60000000E+01  1.00800000E+00  1.00800000E+00  1.60000000E+01
  1.00800000E+00  1.00800000E+00  1.60000000E+01  1.00800000E+00  1.00800000E+00
  1.60000000E+01  1.00800000E+00  1.00800000E+00  1.60000000E+01  1.00800000E+00
  1.00800000E+00  1.60000000E+01  1.00800000E+00  1.00800000E+00  1.60000000E+01
  1.00800000E+00  1.00800000E+00  1.60000000E+01  1.00800000E+00  1.00800000E+00
  1.60000000E+01  1.00800000E+00  1.00800000E+00  1.60000000E+01  1.00800000E+00
  1.00800000E+00  1.60000000E+01  1.00800000E+00  1.00800000E+00  1.60000000E+01
  1.00800000E+00  1.00800000E+00  1.60000000E+01  1.00800000E+00  1.00800000E+00
  1.60000000E+01  1.00800000E+00  1.00800000E+00  1.60000000E+01  1.00800000E+00
  1.00800000E+00  1.60000000E+01  1.00800000E+00  1.00800000E+00  1.60000000E+01
  1.00800000E+00  1.00800000E+00  1.60000000E+01  1.00800000E+00  1.00800000E+00
  1.60000000E+01  1.00800000E+00  1.00800000E+00  1.60000000E+01  1.00800000E+00
  1.00800000E+00  1.60000000E+01  1.00800000E+00  1.00800000E+00  1.60000000E+01
  1.00800000E+00  1.00800000E+00  1.60000000E+01  1.00800000E+00  1.00800000E+00
  1.60000000E+01  1.00800000E+00  1.00800000E+00  1.60000000E+01  1.00800000E+00
  1.00800000E+00  1.60000000E+01  1.00800000E+00  1.00800000E+00  1.60000000E+01
  1.00800000E+00  1.00800000E+00  1.60000000E+01  1.00800000E+00  1.00800000E+00
  1.60000000E+01  1.00800000E+00  1.00800000E+00  1.60000000E+01  1.00800000E+00
  1.00800000E+00  1.60000000E+01  1.00800000E+00  1.00800000E+00  1.60000000E+01
  1.00800000E+00  1.00800000E+00  1.60000000E+01  1.00800000E+00  1.00800000E+00
  1.60000000E+01  1.00800000E+00  1.00800000E+00  1.60000000E+01  1.00800000E+00
  1.00800000E+00  1.60000000E+01  1.00800000E+00  1.00800000E+00  1.60000000E+01
  1.00800000E+00  1.00800000E+00  1.60000000E+01  1.00800000E+00  1.00800000E+00
  1.60000000E+01  1.00800000E+00  1.00800000E+00  1.60000000E+01  1.00800000E+00
  1.00800000E+00  1.60000000E+01  1.00800000E+00  1.00800000E+00  1.60000000E+01
  1.00800000E+00  1.00800000E+00  1.60000000E+01  1.00800000E+00  1.00800000E+00
  1.60000000E+01  1.00800000E+00  1.00800000E+00  1.60000000E+01  1.00800000E+00
  1.00800000E+00  1.60000000E+01  1.00800000E+00  1.00800000E+00  1.60000000E+01
  1.00800000E+00  1.00800000E+00  1.60000000E+01  1.00800000E+00  1.00800000E+00
  1.60000000E+01  1.00800000E+00  1.00800000E+00  1.60000000E+01  1.00800000E+00
  1.00800000E+00  1.60000000E+01  1.00800000E+00  1.00800000E+00  1.60000000E+01
  1.00800000E+00  1.00800000E+00  1.60000000E+01  1.00800000E+00  1.00800000E+00
  1.60000000E+01  1.00800000E+00  1.00800000E+00  1.60000000E+01  1.00800000E+00
  1.00800000E+00  1.60000000E+01  1.00800000E+00  1.00800000E+00  1.60000000E+01
  1.00800000E+00  1.00800000E+00  1.60000000E+01  1.00800000E+00  1.00800000E+00
  1.60000000E+01  1.00800000E+00  1.00800000E+00  1.60000000E+01  1.00800000E+00
  1.00800000E+00  1.60000000E+01  1.00800000E+00  1.00800000E+00  1.60000000E+01
  1.00800000E+00  1.00800000E+00  1.60000000E+01  1.00800000E+00  1.00800000E+00
  1.60000000E+01  1.00800000E+00  1.00800000E+00  1.60000000E+01  1.00800000E+00
  1.00800000E+00  1.60000000E+01  1.00800000E+00  1.00800000E+00  1.60000000E+01
  1.00800000E+00  1.00800000E+00  1.60000000E+01  1.00800000E+00  1.00800000E+00
  1.60000000E+01  1.00800000E+00  1.00800000E+00  1.60000000E+01  1.00800000E+00
  1.00800000E+00  1.60000000E+01  1.00800000E+00  1.00800000E+00  1.60000000E+01
  1.00800000E+00  1.00800000E+00  1.60000000E+01  1.00800000E+00  1.00800000E+00
  1.60000000E+01  1.00800000E+00  1.00800000E+00  1.60000000E+01  1.00800000E+00
  1.00800000E+00  1.60000000E+01  1.00800000E+00  1.00800000E+00  1.60000000E+01
  1.00800000E+00  1.00800000E+00  1.60000000E+01  1.00800000E+00  1.00800000E+00
  1.60000000E+01  1.00800000E+00  1.00800000E+00  1.60000000E+01  1.00800000E+00
  1.00800000E+00  1.60000000E+01  1.00800000E+00  1.00800000E+00  1.60000000E+01
  1.00800000E+00  1.00800000E+00  1.60000000E+01  1.00800000E+00  1.00800000E+00
  1.60000000E+01  1.00800000E+00  1.00800000E+00  1.60000000E+01  1.00800000E+00
  1.00800000E+00  1.60000000E+01  1.00800000E+00  1.00800000E+00  1.60000000E+01
  1.00800000E+00  1.00800000E+00  1.60000000E+01  1.00800000E+00  1.00800000E+00
  1.60000000E+01  1.00800000E+00  1.00800000E+00  1.60000000E+01  1.00800000E+00
  1.00800000E+00  1.60000000E+01  1.00800000E+00  1.00800000E+00  1.60000000E+01
  1.00800000E+00  1.00800000E+00  1.60000000E+01  1.00800000E+00  1.00800000E+00
  1.60000000E+01  1.00800000E+00  1.00800000E+00  1.60000000E+01  1.00800000E+00
  1.00800000E+00  1.60000000E+01  1.00800000E+00  1.00800000E+00  1.60000000E+01
  1.00800000E+00  1.00800000E+00  1.60000000E+01  1.00800000E+00  1.00800000E+00
  1.60000000E+01  1.00800000E+00  1.00800000E+00  1.60000000E+01  1.00800000E+00
  1.00800000E+00  1.60000000E+01  1.00800000E+00  1.00800000E+00  1.60000000E+01
  1.00800000E+00  1.00800000E+00  1.60000000E+01  1.00800000E+00  1.00800000E+00
  1.60000000E+01  1.00800000E+00  1.00800000E+00  1.60000000E+01  1.00800000E+00
  1.00800000E+00  1.60000000E+01  1.00800000E+00  1.00800000E+00  1.60000000E+01
  1.00800000E+00  1.00800000E+00  1.60000000E+01  1.00800000E+00  1.00800000E+00
  1.60000000E+01  1.00800000E+00  1.00800000E+00  1.60000000E+01  1.00800000E+00
  1.00800000E+00  1.60000000E+01  1.00800000E+00  1.00800000E+00  1.60000000E+01
  1.00800000E+00  1.00800000E+00  1.60000000E+01  1.00800000E+00  1.00800000E+00
  1.60000000E+01  1.00800000E+00  1.00800000E+00  1.60000000E+01  1.00800000E+00
  1.00800000E+00  1.60000000E+01  1.00800000E+00  1.00800000E+00  1.60000000E+01
  1.00800000E+00  1.00800000E+00  1.60000000E+01  1.00800000E+00  1.00800000E+00
  1.60000000E+01  1.00800000E+00  1.00800000E+00  1.60000000E+01  1.00800000E+00
  1.00800000E+00  1.60000000E+01  1.00800000E+00  1.00800000E+00  1.60000000E+01
  1.00800000E+00  1.00800000E+00  1.60000000E+01  1.00800000E+00  1.00800000E+00
  1.60000000E+01  1.00800000E+00  1.00800000E+00  1.60000000E+01  1.00800000E+00
  1.00800000E+00  1.60000000E+01  1.00800000E+00  1.00800000E+00  1.60000000E+01
  1.00800000E+00  1.00800000E+00  1.60000000E+01  1.00800000E+00  1.00800000E+00
  1.60000000E+01  1.00800000E+00  1.00800000E+00  1.60000000E+01  1.00800000E+00
  1.00800000E+00  1.60000000E+01  1.00800000E+00  1.00800000E+00  1.60000000E+01
  1.00800000E+00  1.00800000E+00  1.60000000E+01  1.00800000E+00  1.00800000E+00
  1.60000000E+01  1.00800000E+00  1.00800000E+00  1.60000000E+01  1.00800000E+00
  1.00800000E+00  1.60000000E+01  1.00800000E+00  1.00800000E+00  1.60000000E+01
  1.00800000E+00  1.00800000E+00  1.60000000E+01  1.00800000E+00  1.00800000E+00
  1.60000000E+01  1.00800000E+00  1.00800000E+00  1.60000000E+01  1.00800000E+00
  1.00800000E+00  1.60000000E+01  1.00800000E+00  1.00800000E+00  1.60000000E+01
  1.00800000E+00  1.00800000E+00  1.60000000E+01  1.00800000E+00  1.00800000E+00
  1.60000000E+01  1.00800000E+00  1.00800000E+00  1.60000000E+01  1.00800000E+00
  1.00800000E+00  1.60000000E+01  1.00800000E+00  1.00800000E+00  1.60000000E+01
  1.00800000E+00  1.00800000E+00  1.60000000E+01  1.00800000E+00  1.00800000E+00
  1.60000000E+01  1.00800000E+00  1.00800000E+00  1.60000000E+01  1.00800000E+00
  1.00800000E+00  1.60000000E+01  1.00800000E+00  1.00800000E+00  1.60000000E+01
  1.00800000E+00  1.00800000E+00  1.60000000E+01  1.00800000E+00  1.00800000E+00
  1.60000000E+01  1.00800000E+00  1.00800000E+00  1.60000000E+01  1.00800000E+00
  1.00800000E+00  1.60000000E+01  1.00800000E+00  1.00800000E+00  1.60000000E+01
  1.00800000E+00  1.00800000E+00  1.60000000E+01  1.00800000E+00  1.00800000E+00
  1.60000000E+01  1.00800000E+00  1.00800000E+00  1.60000000E+01  1.00800000E+00
  1.00800000E+00  1.60000000E+01  1.00800000E+00  1.00800000E+00  1.60000000E+01
  1.00800000E+00  1.00800000E+00  1.60000000E+01  1.00800000E+00  1.00800000E+00
  1.60000000E+01  1.00800000E+00  1.00800000E+00  1.60000000E+01  1.00800000E+00
  1.00800000E+00  1.60000000E+01  1.00800000E+00  1.00800000E+00  1.60000000E+01
  1.00800000E+00  1.00800000E+00  1.60000000E+01  1.00800000E+00  1.00800000E+00
  1.60000000E+01  1.00800000E+00  1.00800000E+00  1.60000000E+01  1.00800000E+00
  1.00800000E+00  1.60000000E+01  1.00800000E+00  1.00800000E+00  1.60000000E+01
  1.00800000E+00  1.00800000E+00  1.60000000E+01  1.00800000E+00  1.00800000E+00
  1.60000000E+01  1.00800000E+00  1.00800000E+00  1.60000000E+01  1.00800000E+00
  1.00800000E+00  1.60000000E+01  1.00800000E+00  1.00800000E+00  1.60000000E+01
  1.00800000E+00  1.00800000E+00  1.60000000E+01  1.00800000E+00  1.00800000E+00
  1.60000000E+01  1.00800000E+00  1.00800000E+00  1.60000000E+01  1.00800000E+00
  1.00800000E+00  1.60000000E+01  1.00800000E+00  1.00800000E+00  1.60000000E+01
  1.00800000E+00  1.00800000E+00  1.60000000E+01  1.00800000E+00  1.00800000E+00
  1.60000000E+01  1.00800000E+00  1.00800000E+00  1.60000000E+01  1.00800000E+00
  1.00800000E+00  1.60000000E+01  1.00800000E+00  1.00800000E+00  1.60000000E+01
  1.00800000E+00  1.00800000E+00  1.60000000E+01  1.00800000E+00  1.00800000E+00
  1.60000000E+01  1.00800000E+00  1.00800000E+00  1.60000000E+01  1.00800000E+00
  1.00800000E+00  1.60000000E+01  1.00800000E+00  1.00800000E+00  1.60000000E+01
  1.00800000E+00  1.00800000E+00  1.60000000E+01  1.00800000E+00  1.00800000E+00
  1.60000000E+01  1.00800000E+00  1.00800000E+00  1.60000000E+01  1.00800000E+00
  1.00800000E+00  1.60000000E+01  1.00800000E+00  1.00800000E+00  1.60000000E+01
  1.00800000E+00  1.00800000E+00  1.60000000E+01  1.00800000E+00  1.00800000E+00
  1.60000000E+01  1.00800000E+00  1.00800000E+00  1.60000000E+01  1.00800000E+00
  1.00800000E+00  1.60000000E+01  1.00800000E+00  1.00800000E+00  1.60000000E+01
  1.00800000E+00  1.00800000E+00  1.60000000E+01  1.00800000E+00  1.00800000E+00
  1.60000000E+01  1.00800000E+00  1.00800000E+00  1.60000000E+01  1.00800000E+00
  1.00800000E+00  1.60000000E+01  1.00800000E+00  1.00800000E+00  1.60000000E+01
  1.00800000E+00  1.00800000E+00  1.60000000E+01  1.00800000E+00  1.00800000E+00
  1.60000000E+01  1.00800000E+00  1.00800000E+00  1.60000000E+01  1.00800000E+00
  1.00800000E+00  1.60000000E+01  1.00800000E+00  1.00800000E+00  1.60000000E+01
  1.00800000E+00  1.00800000E+00  1.60000000E+01  1.00800000E+00  1.00800000E+00
  1.60000000E+01  1.00800000E+00  1.00800000E+00  1.60000000E+01  1.00800000E+00
  1.00800000E+00  1.60000000E+01  1.00800000E+00  1.00800000E+00  1.60000000E+01
  1.00800000E+00  1.00800000E+00  1.60000000E+01  1.00800000E+00  1.00800000E+00
  1.60000000E+01  1.00800000E+00  1.00800000E+00  1.60000000E+01  1.00800000E+00
  1.00800000E+00  1.60000000E+01  1.00800000E+00  1.00800000E+00  1.60000000E+01
  1.00800000E+00  1.00800000E+00  1.60000000E+01  1.00800000E+00  1.00800000E+00
  1.60000000E+01  1.00800000E+00  1.00800000E+00  1.60000000E+01  1.00800000E+00
  1.00800000E+00  1.60000000E+01  1.00800000E+00  1.00800000E+00  1.60000000E+01
  1.00800000E+00  1.00800000E+00  1.60000000E+01  1.00800000E+00  1.00800000E+00
  1.60000000E+01  1.00800000E+00  1.00800000E+00  1.60000000E+01  1.00800000E+00
  1.00800000E+00  1.60000000E+01  1.00800000E+00  1.00800000E+00  1.60000000E+01
  1.00800000E+00  1.00800000E+00  1.60000000E+01  1.00800000E+00  1.00800000E+00
  1.60000000E+01  1.00800000E+00  1.00800000E+00  1.60000000E+01  1.00800000E+00
  1.00800000E+00  1.60000000E+01  1.00800000E+00  1.00800000E+00  1.60000000E+01
  1.00800000E+00  1.00800000E+00  1.60000000E+01  1.00800000E+00  1.00800000E+00
  1.60000000E+01  1.00800000E+00  1.00800000E+00  1.60000000E+01  1.00800000E+00
  1.00800000E+00  1.60000000E+01  1.00800000E+00  1.00800000E+00  1.60000000E+01
  1.00800000E+00  1.00800000E+00  1.60000000E+01  1.00800000E+00  1.00800000E+00
  1.60000000E+01  1.00800000E+00  1.00800000E+00  1.60000000E+01  1.00800000E+00
  1.00800000E+00  1.60000000E+01  1.00800000E+00  1.00800000E+00  1.60000000E+01
  1.00800000E+00  1.00800000E+00  1.60000000E+01  1.00800000E+00  1.00800000E+00
  1.60000000E+01  1.00800000E+00  1.00800000E+00  1.60000000E+01  1.00800000E+00
  1.00800000E+00  1.60000000E+01  1.00800000E+00  1.00800000E+00  1.60000000E+01
  1.00800000E+00  1.00800000E+00  1.60000000E+01  1.00800000E+00  1.00800000E+00
  1.60000000E+01  1.00800000E+00  1.00800000E+00  1.60000000E+01  1.00800000E+00
  1.00800000E+00  1.60000000E+01  1.00800000E+00  1.00800000E+00  1.60000000E+01
  1.00800000E+00  1.00800000E+00  1.60000000E+01  1.00800000E+00  1.00800000E+00
  1.60000000E+01  1.00800000E+00  1.00800000E+00  1.60000000E+01  1.00800000E+00
  1.00800000E+00  1.60000000E+01  1.00800000E+00  1.00800000E+00  1.60000000E+01
  1.00800000E+00  1.00800000E+00  1.60000000E+01  1.00800000E+00  1.00800000E+00
  1.60000000E+01  1.00800000E+00  1.00800000E+00  1.60000000E+01  1.00800000E+00
  1.00800000E+00  1.60000000E+01  1.00800000E+00  1.00800000E+00  1.60000000E+01
  1.00800000E+00  1.00800000E+00  1.60000000E+01  1.00800000E+00  1.00800000E+00
  1.60000000E+01  1.00800000E+00  1.00800000E+00  1.60000000E+01  1.00800000E+00
  1.00800000E+00  1.60000000E+01  1.00800000E+00  1.00800000E+00  1.60000000E+01
  1.00800000E+00  1.00800000E+00  1.60000000E+01  1.00800000E+00  1.00800000E+00
  1.60000000E+01  1.00800000E+00  1.00800000E+00  1.60000000E+01  1.00800000E+00
  1.00800000E+00  1.60000000E+01  1.00800000E+00  1.00800000E+00  1.60000000E+01
  1.00800000E+00  1.00800000E+00  1.60000000E+01  1.00800000E+00  1.00800000E+00
  1.60000000E+01  1.00800000E+00  1.00800000E+00  1.60000000E+01  1.00800000E+00
  1.00800000E+00  1.60000000E+01  1.00800000E+00  1.00800000E+00  1.60000000E+01
  1.00800000E+00  1.00800000E+00  1.60000000E+01  1.00800000E+00  1.00800000E+00
  1.60000000E+01  1.00800000E+00  1.00800000E+00  1.60000000E+01  1.00800000E+00
  1.00800000E+00  1.60000000E+01  1.00800000E+00  1.00800000E+00  1.60000000E+01
  1.00800000E+00  1.00800000E+00  1.60000000E+01  1.00800000E+00  1.00800000E+00
  1.60000000E+01  1.00800000E+00  1.00800000E+00  1.60000000E+01  1.00800000E+00
  1.00800000E+00  1.60000000E+01  1.00800000E+00  1.00800000E+00  1.60000000E+01
  1.00800000E+00  1.00800000E+00  1.60000000E+01  1.00800000E+00  1.00800000E+00
  1.60000000E+01  1.00800000E+00  1.00800000E+00  1.60000000E+01  1.00800000E+00
  1.00800000E+00  1.60000000E+01  1.00800000E+00  1.00800000E+00  1.60000000E+01
  1.00800000E+00  1.00800000E+00  1.60000000E+01  1.00800000E+00  1.00800000E+00
  1.60000000E+01  1.00800000E+00  1.00800000E+00  1.60000000E+01  1.00800000E+00
  1.00800000E+00  1.60000000E+01  1.00800000E+00  1.00800000E+00  1.60000000E+01
  1.00800000E+00  1.00800000E+00  1.60000000E+01  1.00800000E+00  1.00800000E+00
  1.60000000E+01  1.00800000E+00  1.00800000E+00  1.60000000E+01  1.00800000E+00
  1.00800000E+00  1.60000000E+01  1.00800000E+00  1.00800000E+00  1.60000000E+01
  1.00800000E+00  1.00800000E+00  1.60000000E+01  1.00800000E+00  1.00800000E+00
  1.60000000E+01  1.00800000E+00  1.00800000E+00  1.60000000E+01  1.00800000E+00
  1.00800000E+00  1.60000000E+01  1.00800000E+00  1.00800000E+00  1.60000000E+01
  1.00800000E+00  1.00800000E+00  1.60000000E+01  1.00800000E+00  1.00800000E+00
  1.60000000E+01  1.00800000E+00  1.00800000E+00  1.60000000E+01  1.00800000E+00
  1.00800000E+00  1.60000000E+01  1.00800000E+00  1.00800000E+00  1.60000000E+01
  1.00800000E+00  1.00800000E+00  1.60000000E+01  1.00800000E+00  1.00800000E+00
  1.60000000E+01  1.00800000E+00  1.00800000E+00  1.60000000E+01  1.00800000E+00
  1.00800000E+00  1.60000000E+01  1.00800000E+00  1.00800000E+00  1.60000000E+01
  1.00800000E+00  1.00800000E+00  1.60000000E+01  1.00800000E+00  1.00800000E+00
  1.60000000E+01  1.00800000E+00  1.00800000E+00  1.60000000E+01  1.00800000E+00
  1.00800000E+00  1.60000000E+01  1.00800000E+00  1.00800000E+00  1.60000000E+01
  1.00800000E+00  1.00800000E+00  1.60000000E+01  1.00800000E+00  1.00800000E+00
  1.60000000E+01  1.00800000E+00  1.00800000E+00  1.60000000E+01  1.00800000E+00
  1.00800000E+00  1.60000000E+01  1.00800000E+00  1.00800000E+00  1.60000000E+01
  1.00800000E+00  1.00800000E+00  1.60000000E+01  1.00800000E+00  1.00800000E+00
  1.60000000E+01  1.00800000E+00  1.00800000E+00  1.60000000E+01  1.00800000E+00
  1.00800000E+00  1.60000000E+01  1.00800000E+00  1.00800000E+00  1.60000000E+01
  1.00800000E+00  1.00800000E+00  1.60000000E+01  1.00800000E+00  1.00800000E+00
  1.60000000E+01  1.00800000E+00  1.00800000E+00  1.60000000E+01  1.00800000E+00
  1.00800000E+00  1.60000000E+01  1.00800000E+00  1.00800000E+00  1.60000000E+01
  1.00800000E+00  1.00800000E+00  1.60000000E+01  1.00800000E+00  1.00800000E+00
  1.60000000E+01  1.00800000E+00  1.00800000E+00  1.60000000E+01  1.00800000E+00
  1.00800000E+00  1.60000000E+01  1.00800000E+00  1.00800000E+00  1.60000000E+01
  1.00800000E+00  1.00800000E+00  1.60000000E+01  1.00800000E+00  1.00800000E+00
  1.60000000E+01  1.00800000E+00  1.00800000E+00  1.60000000E+01  1.00800000E+00
  1.00800000E+00  1.60000000E+01  1.00800000E+00  1.00800000E+00  1.60000000E+01
  1.00800000E+00  1.00800000E+00  1.60000000E+01  1.00800000E+00  1.00800000E+00
  1.60000000E+01  1.00800000E+00  1.00800000E+00  1.60000000E+01  1.00800000E+00
  1.00800000E+00  1.60000000E+01  1.00800000E+00  1.00800000E+00  1.60000000E+01
  1.00800000E+00  1.00800000E+00  1.60000000E+01  1.00800000E+00  1.00800000E+00
  1.60000000E+01  1.00800000E+00  1.00800000E+00  1.60000000E+01  1.00800000E+00
  1.00800000E+00  1.60000000E+01  1.00800000E+00  1.00800000E+00  1.60000000E+01
  1.00800000E+00  1.00800000E+00  1.60000000E+01  1.00800000E+00  1.00800000E+00
  1.60000000E+01  1.00800000E+00  1.00800000E+00  1.60000000E+01  1.00800000E+00
  1.00800000E+00  1.60000000E+01  1.00800000E+00  1.00800000E+00  1.60000000E+01
  1.00800000E+00  1.00800000E+00  1.60000000E+01  1.00800000E+00  1.00800000E+00
  1.60000000E+01  1.00800000E+00  1.00800000E+00  1.60000000E+01  1.00800000E+00
  1.00800000E+00  1.60000000E+01  1.00800000E+00  1.00800000E+00  1.60000000E+01
  1.00800000E+00  1.00800000E+00  1.60000000E+01  1.00800000E+00  1.00800000E+00
  1.60000000E+01  1.00800000E+00  1.00800000E+00  1.60000000E+01  1.00800000E+00
  1.00800000E+00  1.60000000E+01  1.00800000E+00  1.00800000E+00  1.60000000E+01
  1.00800000E+00  1.00800000E+00  1.60000000E+01  1.00800000E+00  1.00800000E+00
  1.60000000E+01  1.00800000E+00  1.00800000E+00  1.60000000E+01  1.00800000E+00
  1.00800000E+00  1.60000000E+01  1.00800000E+00  1.00800000E+00  1.60000000E+01
  1.00800000E+00  1.00800000E+00
%FLAG ATOM_TYPE_INDEX                                                           
%FORMAT(10I8)                                                                   
       1       2       2       2       1       2       2       2       1       3
       3       4       5       6       6       6       1       2       6       5
       6       7       6       7       1       8       9       1       8       8
       1       2       2       2       1       8       8       1       2       2
       2      10      11      12      12      11      12      12      11      12
      12      11      12      12      11      12      12      11      12      12
      11      12      12      11      12      12      11      12      12      11
      12      12      11      12      12      11      12      12      11      12
      12      11      12      12      11      12      12      11      12      12
      11      12      12      11      12      12      11      12      12      11
      12      12      11      12      12      11      12      12      11      12
      12      11      12      12      11      12      12      11      12      12
      11      12      12      11      12      12      11      12      12      11
      12      12      11      12      12      11      12      12      11      12
      12      11      12      12      11      12      12      11      12      12
      11      12      12      11      12      12      11      12      12      11
      12      12      11      12      12      11      12      12      11      12
      12      11      12      12      11      12      12      11      12      12
      11      12      12      11      12      12      11      12      12      11
      12      12      11      12      12      11      12      12      11      12
      12      11      12      12      11      12      12      11      12      12
      11      12      12      11      12      12      11      12      12      11
      12      12      11      12      12      11      12      12      11      12
      12      11      12      12      11      12      12      11      12      12
      11      12      12      11      12      12      11      12      12      11
      12      12      11      12      12      11      12      12      11      12
      12      11      12      12      11      12      12      11      12      12
      11      12      12      11      12      12      11      12      12      11
      12      12      11      12      12      11      12      12      11      12
      12      11      12      12      11      12      12      11      12      12
      11      12      12      11      12      12      11      12      12      11
      12      12      11      12      12      11      12      12      11      12
      12      11      12      12      11      12      12      11      12      12
      11      12      12      11      12      12      11      12      12      11
      12      12      11      12      12      11      12      12      11      12
      12      11      12      12      11      12      12      11      12      12
      11      12      12      11      12      12      11      12      12      11
      12      12      11      12      12      11      12      12      11      12
      12      11      12      12      11      12      12      11      12      12
      11      12      12      11      12      12      11      12      12      11
      12      12      11      12      12      11      12      12      11      12
      12      11      12      12      11      12      12      11      12      12
      11      12      12      11      12      12      11      12      12      11
      12      12      11      12      12      11      12      12      11      12
      12      11      12      12      11      12      12      11      12      12
      11      12      12      11      12      12      11      12      12      11
      12      12      11      12      12      11      12      12      11      12
      12      11      12      12      11      12      12      11      12      12
      11      12      12      11      12      12      11      12      12      11
      12      12      11      12      12      11      12      12      11      12
      12      11      12      12      11      12      12      11      12      12
      11      12      12      11      12      12      11      12      12      11
      12      12      11      12      12      11      12      12      11      12
      12      11      12      12      11      12      12      11      12      12
      11      12      12      11      12      12      11      12      12      11
      12      12      11      12      12      11      12      12      11      12
      12      11      12      12      11      12      12      11      12      12
      11      12      12      11      12      12      11      12      12      11
      12      12      11      12      12      11      12      12      11      12
      12      11      12      12      11      12      12      11      12      12
      11      12      12      11      12      12      11      12      12      11
      12      12      11      12      12      11      12      12      11      12
      12      11      12      12      11      12      12      11      12      12
      11      12      12      11      12      12      11      12      12      11
      12      12      11      12      12      11      12      12      11      12
      12      11      12      12      11      12      12      11      12      12
      11      12      12      11      12      12      11      12      12      11
      12      12      11      12      12      11      12      12      11      12
      12      11      12      12      11      12      12      11      12      12
      11      12      12      11      12      12      11      12      12      11
      12      12      11      12      12      11      12      12      11      12
      12      11      12      12      11      12      12      11      12      12
      11      12      12      11      12      12      11      12      12      11
      12      12      11      12      12      11      12      12      11      12
      12      11      12      12      11      12      12      11      12      12
      11      12      12      11      12      12      11      12      12      11
      12      12      11      12      12      11      12      12      11      12
      12      11      12      12      11      12      12      11      12      12
      11      12      12      11      12      12      11      12      12      11
      12      12      11      12      12      11      12      12      11      12
      12      11      12      12      11      12      12      11      12      12
      11      12      12      11      12      12      11      12      12      11
      12      12      11      12      12      11      12      12      11      12
      12      11      12      12      11      12      12      11      12      12
      11      12      12      11      12      12      11      12      12      11
      12      12      11      12      12      11      12      12      11      12
      12      11      12      12      11      12      12      11      12      12
      11      12      12      11      12      12      11      12      12      11
      12      12      11      12      12      11      12      12      11      12
      12      11      12      12      11      12      12      11      12      12
      11      12      12      11      12      12      11      12      12      11
      12      12      11      12      12      11      12      12      11      12
      12      11      12      12      11      12      12      11      12      12
      11      12      12      11      12      12      11      12      12      11
      12      12      11      12      12      11      12      12      11      12
      12      11      12      12      11      12      12      11      12      12
      11      12      12      11      12      12      11      12      12      11
      12      12      11      12      12      11      12      12      11      12
      12      11      12      12      11      12      12      11      12      12
      11      12      12      11      12      12      11      12      12      11
      12      12      11      12      12      11      12      12      11      12
      12      11      12      12      11      12      12      11      12      12
      11      12      12      11      12      12      11      12      12      11
      12      12      11      12      12      11      12      12      11      12
      12      11      12      12      11      12      12      11      12      12
      11      12      12      11      12      12      11      12      12      11
      12      12      11      12      12      11      12      12      11      12
      12      11      12      12      11      12      12      11      12      12
      11      12      12      11      12      12      11      12      12      11
      12      12      11      12      12      11      12      12      11      12
      12      11      12      12      11      12      12      11      12      12
      11      12      12      11      12      12      11      12      12      11
      12      12      11      12      12      11      12      12      11      12
      12      11      12      12      11      12      12      11      12      12
      11      12      12      11      12      12      11      12      12      11
      12      12      11      12      12      11      12      12      11      12
      12      11      12      12      11      12      12      11      12      12
      11      12      12      11      12      12      11      12      12      11
      12      12      11      12      12      11      12      12      11      12
      12      11      12      12      11      12      12      11      12      12
      11      12      12      11      12      12      11      12      12      11
      12      12
%FLAG NUMBER_EXCLUDED_ATOMS                                                     
%FORMAT(10I8)                                                                   
      12       6       5       4       8       5       4       3       7       7
       5       5       4       7       5      10      12       7       8       4
       6       3       6       3      10       3      14      10       6       5
       4       2       1       1       6       5       4       3       2       1
       1       1       2       1       1       2       1       1       2       1
       1       2       1       1       2       1       1       2       1       1
       2       1       1       2       1       1       2       1       1       2
       1       1       2       1       1       2       1       1       2       1
       1       2       1       1       2       1       1       2       1       1
       2       1       1       2       1       1       2       1       1       2
       1       1       2       1       1       2       1       1       2       1
       1       2       1       1       2       1       1       2       1       1
       2       1       1       2       1       1       2       1       1       2
       1       1       2       1       1       2       1       1       2       1
       1       2       1       1       2       1       1       2       1       1
       2       1       1       2       1       1       2       1       1       2
       1       1       2       1       1       2       1       1       2       1
       1       2       1       1       2       1       1       2       1       1
       2       1       1       2       1       1       2       1       1       2
       1       1       2       1       1       2       1       1       2       1
       1       2       1       1       2       1       1       2       1       1
       2       1       1       2       1       1       2       1       1       2
       1       1       2       1       1       2       1       1       2       1
       1       2       1       1       2       1       1       2       1       1
       2       1       1       2       1       1       2       1       1       2
       1       1       2       1       1       2       1       1       2       1
       1       2       1       1       2       1       1       2       1       1
       2       1       1       2       1       1       2       1       1       2
       1       1       2       1       1       2       1       1       2       1
       1       2       1       1       2       1       1       2       1       1
       2       1       1       2       1       1       2       1       1       2
       1       1       2       1       1       2       1       1       2       1
       1       2       1       1       2       1       1       2       1       1
       2       1       1       2       1       1       2       1       1       2
       1       1       2       1       1       2       1       1       2       1
       1       2       1       1       2       1       1       2       1       1
       2       1       1       2       1       1       2       1       1       2
       1       1       2       1       1       2       1       1       2       1
       1       2       1       1       2       1       1       2       1       1
       2       1       1       2       1       1       2       1       1       2
       1       1       2       1       1       2       1       1       2       1
       1       2       1       1       2       1       1       2       1       1
       2       1       1       2       1       1       2       1       1       2
       1       1       2       1       1       2       1       1       2       1
       1       2       1       1       2       1       1       2       1       1
       2       1       1       2       1       1       2       1       1       2
       1       1       2       1       1       2       1       1       2       1
       1       2       1       1       2       1       1       2       1       1
       2       1       1       2       1       1       2       1       1       2
       1       1       2       1       1       2       1       1       2       1
       1       2       1       1       2       1       1       2       1       1
       2       1       1       2       1       1       2       1       1       2
       1       1       2       1       1       2       1       1       2       1
       1       2       1       1       2       1       1       2       1       1
       2       1       1       2       1       1       2       1       1       2
       1       1       2       1       1       2       1       1       2       1
       1       2       1       1       2       1       1       2       1       1
       2       1       1       2       1       1       2       1       1       2
       1       1       2       1       1       2       1       1       2       1
       1       2       1       1       2       1       1       2       1       1
       2       1       1       2       1       1       2       1       1       2
       1       1       2       1       1       2       1       1       2       1
       1       2       1       1       2       1       1       2       1       1
       2       1       1       2       1       1       2       1       1       2
       1       1       2       1       1       2       1       1       2       1
       1       2       1       1       2       1       1       2       1       1
       2       1       1       2       1       1       2       1       1       2
       1       1       2       1       1       2       1       1       2       1
       1       2       1       1       2       1       1       2       1       1
       2       1       1       2       1       1       2       1       1       2
       1       1       2       1       1       2       1       1       2       1
       1       2       1       1       2       1       1       2       1       1
       2       1       1       2       1       1       2       1       1       2
       1       1       2       1       1       2       1       1       2       1
       1       2       1       1       2       1       1       2       1       1
       2       1       1       2       1       1       2       1       1       2
       1       1       2       1       1       2       1       1       2       1
       1       2       1       1       2       1       1       2       1       1
       2       1       1       2       1       1       2       1       1       2
       1       1       2       1       1       2       1       1       2       1
       1       2       1       1       2       1       1       2       1       1
       2       1       1       2       1       1       2       1       1       2
       1       1       2       1       1       2       1       1       2       1
       1       2       1       1       2       1       1       2       1       1
       2       1       1       2       1       1       2       1       1       2
       1       1       2       1       1       2       1       1       2       1
       1       2       1       1       2       1       1       2       1       1
       2       1       1       2       1       1       2       1       1       2
       1       1       2       1       1       2       1       1       2       1
       1       2       1       1       2       1       1       2       1       1
       2       1       1       2       1       1       2       1       1       2
       1       1       2       1       1       2       1       1       2       1
       1       2       1       1       2       1       1       2       1       1
       2       1       1       2       1       1       2       1       1       2
       1       1       2       1       1       2       1       1       2       1
       1       2       1       1       2       1       1       2       1       1
       2       1       1       2       1       1       2       1       1       2
       1       1       2       1       1       2       1       1       2       1
       1       2       1       1       2       1       1       2       1       1
       2       1       1       2       1       1       2       1       1       2
       1       1       2       1       1       2       1       1       2       1
       1       2       1       1       2       1       1       2       1       1
       2       1       1       2       1       1       2       1       1       2
       1       1       2       1       1       2       1       1       2       1
       1       2       1       1       2       1       1       2       1       1
       2       1       1       2       1       1       2       1       1       2
       1       1       2       1       1       2       1       1       2       1
       1       2       1       1       2       1       1       2       1       1
       2       1       1       2       1       1       2       1       1       2
       1       1       2       1       1       2       1       1       2       1
       1       2       1       1       2       1       1       2       1       1
       2       1       1       2       1       1       2       1       1       2
       1       1       2       1       1       2       1       1       2       1
       1       2       1       1       2       1       1       2       1       1
       2       1       1       2       1       1       2       1       1       2
       1       1       2       1       1       2       1       1       2       1
       1       2       1       1       2       1       1       2       1       1
       2       1       1       2       1       1       2       1       1       2
       1       1       2       1       1       2       1       1       2       1
       1       2       1       1       2       1       1       2       1       1
       2       1       1       2       1       1       2       1       1       2
       1       1
%FLAG NONBONDED_PARM_INDEX                                                      
%FORMAT(10I8)                                                                   
       1       2       4       7      11      16      22      29      37      46
      56      67       2       3       5       8      12      17      23      30
      38      47      57      68       4       5       6       9      13      18
      24      31      39      48      58      69       7       8       9      10
      14      19      25      32      40      49      59      70      11      12
      13      14      15      20      26      33      41      50      60      71
      16      17      18      19      20      21      27      34      42      51
      61      72      22      23      24      25      26      27      28      35
      43      52      62      73      29      30      31      32      33      34
      35      36      44      53      63      74      37      38      39      40
      41      42      43      44      45      54      64      75      46      47
      48      49      50      51      52      53      54      55      65      76
      56      57      58      59      60      61      62      63      64      65
      66      -1      67      68      69      70      71      72      73      74
      75      76      -1      78
%FLAG RESIDUE_LABEL                                                             
%FORMAT(20a4)                                                                   
PT1 SPF SPF SPF SPF SPF SPF SPF SPF SPF SPF SPF SPF SPF SPF SPF SPF SPF SPF SPF 
SPF SPF SPF SPF SPF SPF SPF SPF SPF SPF SPF SPF SPF SPF SPF SPF SPF SPF SPF SPF 
SPF SPF SPF SPF SPF SPF SPF SPF SPF SPF SPF SPF SPF SPF SPF SPF SPF SPF SPF SPF 
SPF SPF SPF SPF SPF SPF SPF SPF SPF SPF SPF SPF SPF SPF SPF SPF SPF SPF SPF SPF 
SPF SPF SPF SPF SPF SPF SPF SPF SPF SPF SPF SPF SPF SPF SPF SPF SPF SPF SPF SPF 
SPF SPF SPF SPF SPF SPF SPF SPF SPF SPF SPF SPF SPF SPF SPF SPF SPF SPF SPF SPF 
SPF SPF SPF SPF SPF SPF SPF SPF SPF SPF SPF SPF SPF SPF SPF SPF SPF SPF SPF SPF 
SPF SPF SPF SPF SPF SPF SPF SPF SPF SPF SPF SPF SPF SPF SPF SPF SPF SPF SPF SPF 
SPF SPF SPF SPF SPF SPF SPF SPF SPF SPF SPF SPF SPF SPF SPF SPF SPF SPF SPF SPF 
SPF SPF SPF SPF SPF SPF SPF SPF SPF SPF SPF SPF SPF SPF SPF SPF SPF SPF SPF SPF 
SPF SPF SPF SPF SPF SPF SPF SPF SPF SPF SPF SPF SPF SPF SPF SPF SPF SPF SPF SPF 
SPF SPF SPF SPF SPF SPF SPF SPF SPF SPF SPF SPF SPF SPF SPF SPF SPF SPF SPF SPF 
SPF SPF SPF SPF SPF SPF SPF SPF SPF SPF SPF SPF SPF SPF SPF SPF SPF SPF SPF SPF 
SPF SPF SPF SPF SPF SPF SPF SPF SPF SPF SPF SPF SPF SPF SPF SPF SPF SPF SPF SPF 
SPF SPF SPF SPF SPF SPF SPF SPF SPF SPF SPF SPF SPF SPF SPF SPF SPF SPF SPF SPF 
SPF SPF SPF SPF SPF SPF SPF SPF SPF SPF SPF SPF SPF SPF SPF SPF SPF SPF SPF SPF 
SPF SPF SPF SPF SPF SPF SPF SPF SPF SPF SPF SPF SPF SPF SPF SPF SPF SPF SPF SPF 
SPF SPF SPF SPF SPF SPF SPF SPF SPF SPF SPF SPF SPF SPF SPF SPF SPF SPF SPF SPF 
SPF SPF SPF SPF SPF SPF SPF SPF SPF SPF SPF SPF SPF SPF SPF SPF SPF SPF SPF SPF 
SPF SPF SPF SPF SPF SPF SPF SPF SPF SPF SPF 
%FLAG RESIDUE_POINTER                                                           
%FORMAT(10I8)                                                                   
       1      43      46      49      52      55      58      61      64      67
      70      73      76      79      82      85      88      91      94      97
     100     103     106     109     112     115     118     121     124     127
     130     133     136     139     142     145     148     151     154     157
     160     163     166     169     172     175     178     181     184     187
     190     193     196     199     202     205     208     211     214     217
     220     223     226     229     232     235     238     241     244     247
     250     253     256     259     262     265     268     271     274     277
     280     283     286     289     292     295     298     301     304     307
     310     313     316     319     322     325     328     331     334     337
     340     343     346     349     352     355     358     361     364     367
     370     373     376     379     382     385     388     391     394     397
     400     403     406     409     412     415     418     421     424     427
     430     433     436     439     442     445     448     451     454     457
     460     463     466     469     472     475     478     481     484     487
     490     493     496     499     502     505     508     511     514     517
     520     523     526     529     532     535     538     541     544     547
     550     553     556     559     562     565     568     571     574     577
     580     583     586     589     592     595     598     601     604     607
     610     613     616     619     622     625     628     631     634     637
     640     643     646     649     652     655     658     661     664     667
     670     673     676     679     682     685     688     691     694     697
     700     703     706     709     712     715     718     721     724     727
     730     733     736     739     742     745     748     751     754     757
     760     763     766     769     772     775     778     781     784     787
     790     793     796     799     802     805     808     811     814     817
     820     823     826     829     832     835     838     841     844     847
     850     853     856     859     862     865     868     871     874     877
     880     883     886     889     892     895     898     901     904     907
     910     913     916     919     922     925     928     931     934     937
     940     943     946     949     952     955     958     961     964     967
     970     973     976     979     982     985     988     991     994     997
    1000    1003    1006    1009    1012    1015    1018    1021    1024    1027
    1030    1033    1036    1039    1042    1045    1048    1051    1054    1057
    1060    1063    1066    1069    1072    1075    1078    1081    1084    1087
    1090    1093    1096    1099    1102    1105    1108    1111    1114    1117
    1120    1123    1126    1129    1132    1135    1138    1141    1144    1147
    1150    1153    1156    1159    1162    1165    1168    1171    1174    1177
    1180    1183    1186    1189    1192    1195    1198    1201    1204    1207
    1210
%FLAG BOND_FORCE_CONSTANT                                                       
%FORMAT(5E16.8)                                                                 
  3.30600000E+02  3.30600000E+02  3.00900000E+02  3.25900000E+02  3.43100000E+02
  3.26800000E+02  5.69400000E+02  6.22900000E+02  4.17600000E+02  3.71400000E+02
  3.89200000E+02  3.08600000E+02  0.00000000E+00  5.29580000E+02
%FLAG BOND_EQUIL_VALUE                                                          
%FORMAT(5E16.8)                                                                 
  1.09690000E+00  1.09690000E+00  1.53750000E+00  1.46470000E+00  1.08790000E+00
  1.50950000E+00  1.33430000E+00  1.22470000E+00  1.33850000E+00  9.73000000E-01
  1.35960000E+00  1.43160000E+00  1.63300000E+00  1.01200000E+00
%FLAG ANGLE_FORCE_CONSTANT                                                      
%FORMAT(5E16.8)                                                                 
  3.94000000E+01  4.64000000E+01  3.92000000E+01  4.63000000E+01  6.38000000E+01
  4.95000000E+01  6.60000000E+01  4.59000000E+01  4.71000000E+01  6.66000000E+01
  4.99000000E+01  6.41000000E+01  7.16000000E+01  6.34000000E+01  6.93000000E+01
  4.70000000E+01  6.79000000E+01  6.39000000E+01  5.00000000E+01  7.12000000E+01
  7.65000000E+01  7.07000000E+01  7.27000000E+01  7.43000000E+01  6.34000000E+01
  6.80000000E+01  6.29000000E+01  3.79500000E+01
%FLAG ANGLE_EQUIL_VALUE                                                         
%FORMAT(5E16.8)                                                                 
  1.87762601E+00  1.91218355E+00  1.89298492E+00  1.91637234E+00  1.96087826E+00
  1.91776860E+00  1.93801443E+00  2.01899774E+00  1.91916487E+00  1.94464669E+00
  2.10190092E+00  2.15775148E+00  2.28446244E+00  1.94709015E+00  2.12598647E+00
  1.92614619E+00  2.14361431E+00  1.95476960E+00  1.87849868E+00  2.13226966E+00
  2.11586356E+00  2.12703367E+00  1.89001786E+00  2.00800217E+00  2.01742695E+00
  1.88443280E+00  1.94621748E+00  1.97641169E+00
%FLAG DIHEDRAL_FORCE_CONSTANT                                                   
%FORMAT(5E16.8)                                                                 
  1.55555556E-01  4.80000000E-01  3.00000000E-01  0.00000000E+00  6.65000000E+00
  1.15000000E+00  3.80000000E-01  1.05000000E+00  3.83333333E-01  2.50000000E-01
  0.00000000E+00  1.60000000E-01  1.10000000E+00
%FLAG DIHEDRAL_PERIODICITY                                                      
%FORMAT(5E16.8)                                                                 
  3.00000000E+00  2.00000000E+00  3.00000000E+00  2.00000000E+00  2.00000000E+00
  1.00000000E+00  3.00000000E+00  2.00000000E+00  3.00000000E+00  1.00000000E+00
  3.00000000E+00  3.00000000E+00  2.00000000E+00
%FLAG DIHEDRAL_PHASE                                                            
%FORMAT(5E16.8)                                                                 
  0.00000000E+00  3.14159400E+00  0.00000000E+00  0.00000000E+00  3.14159400E+00
  0.00000000E+00  3.14159400E+00  3.14159400E+00  0.00000000E+00  0.00000000E+00
  0.00000000E+00  0.00000000E+00  3.14159400E+00
%FLAG SCEE_SCALE_FACTOR                                                         
%FORMAT(5E16.8)                                                                 
  1.20000000E+00  1.20000000E+00  1.20000000E+00  1.20000000E+00  1.20000000E+00
  1.20000000E+00  1.20000000E+00  1.20000000E+00  1.20000000E+00  1.20000000E+00
  1.20000000E+00  1.20000000E+00  0.00000000E+00
%FLAG SCNB_SCALE_FACTOR                                                         
%FORMAT(5E16.8)                                                                 
  2.00000000E+00  2.00000000E+00  2.00000000E+00  2.00000000E+00  2.00000000E+00
  2.00000000E+00  2.00000000E+00  2.00000000E+00  2.00000000E+00  2.00000000E+00
  2.00000000E+00  2.00000000E+00  0.00000000E+00
%FLAG SOLTY                                                                     
%FORMAT(5E16.8)                                                                 
  0.00000000E+00  0.00000000E+00  0.00000000E+00  0.00000000E+00  0.00000000E+00
  0.00000000E+00  0.00000000E+00  0.00000000E+00  0.00000000E+00  0.00000000E+00
  0.00000000E+00  0.00000000E+00
%FLAG LENNARD_JONES_ACOEF                                                       
%FORMAT(5E16.8)                                                                 
  1.04308023E+06  9.71708117E+04  7.51607703E+03  6.28541240E+05  5.33379252E+04
  3.61397723E+05  7.91544157E+05  6.82786631E+04  4.58874091E+05  5.81803229E+05
  6.47841731E+05  5.44261042E+04  3.70622491E+05  4.71003287E+05  3.79876399E+05
  9.24822270E+05  8.61541883E+04  5.57281136E+05  7.01803794E+05  5.74393458E+05
  8.19971662E+05  8.59947003E+04  6.55825601E+03  4.68711055E+04  6.00750218E+04
  4.77908183E+04  7.62451550E+04  5.71629601E+03  6.78771368E+04  4.98586848E+03
  3.63097246E+04  4.66922514E+04  3.69471530E+04  6.01816484E+04  4.33325458E+03
  3.25969625E+03  9.95480466E+05  8.96776989E+04  5.89818288E+05  7.44975864E+05
  6.06829342E+05  8.82619071E+05  7.91627154E+04  6.20665997E+04  9.44293233E+05
  0.00000000E+00  0.00000000E+00  0.00000000E+00  0.00000000E+00  0.00000000E+00
  0.00000000E+00  0.00000000E+00  0.00000000E+00  0.00000000E+00  0.00000000E+00
  8.16694781E+05  7.21436500E+04  4.79143508E+05  6.06232282E+05  4.92440807E+05
  7.24102997E+05  6.35901902E+04  4.96613896E+04  7.71957218E+05  0.00000000E+00
  6.29767422E+05  0.00000000E+00  0.00000000E+00  0.00000000E+00  0.00000000E+00
  0.00000000E+00  0.00000000E+00  0.00000000E+00  0.00000000E+00  0.00000000E+00
  0.00000000E+00  0.00000000E+00  0.00000000E+00
%FLAG LENNARD_JONES_BCOEF                                                       
%FORMAT(5E16.8)                                                                 
  6.75612247E+02  1.26919150E+02  2.17257828E+01  5.85549272E+02  1.04986921E+02
  4.95732238E+02  6.93079947E+02  1.25287818E+02  5.89183300E+02  6.99746810E+02
  6.26720080E+02  1.11805549E+02  5.29252520E+02  6.29300710E+02  5.64885984E+02
  5.99015525E+02  1.12529845E+02  5.19163331E+02  6.14502845E+02  5.55666448E+02
  5.31102864E+02  1.18043746E+02  2.00642027E+01  9.73010751E+01  1.16187983E+02
  1.03580945E+02  1.04660679E+02  1.85196588E+01  1.06076943E+02  1.76949863E+01
  8.66220817E+01  1.03606917E+02  9.21192136E+01  9.40505980E+01  1.63092814E+01
  1.43076527E+01  7.36907417E+02  1.36131731E+02  6.33305958E+02  7.50714425E+02
  6.77220874E+02  6.53361429E+02  1.26451907E+02  1.13252061E+02  8.01323529E+02
  0.00000000E+00  0.00000000E+00  0.00000000E+00  0.00000000E+00  0.00000000E+00
  0.00000000E+00  0.00000000E+00  0.00000000E+00  0.00000000E+00  0.00000000E+00
  6.52644932E+02  1.19389661E+02  5.58133106E+02  6.62176422E+02  5.96519424E+02
  5.78652101E+02  1.10818081E+02  9.90551583E+01  7.08437588E+02  0.00000000E+00
  6.25670384E+02  0.00000000E+00  0.00000000E+00  0.00000000E+00  0.00000000E+00
  0.00000000E+00  0.00000000E+00  0.00000000E+00  0.00000000E+00  0.00000000E+00
  0.00000000E+00  0.00000000E+00  0.00000000E+00
%FLAG BONDS_INC_HYDROGEN                                                        
%FORMAT(10I8)                                                                   
     111     114       1     111     117       1     111     120       1     102
     105       2     102     108       2      90      93       1      90      96
       1      90      99       1      81      84       2      81      87       2
      72      75       2      66      69       5      60      63       5      48
      51       1      33     123      10      12      15       1      12      18
       1      12      21       1       0       3       1       0       6       1
       0       9       1     129     132      13     126     129      14     126
     132      14     138     141      13     135     138      14     135     141
      14     147     150      13     144     147      14     144     150      14
     156     159      13     153     156      14     153     159      14     165
     168      13     162     165      14     162     168      14     174     177
      13     171     174      14     171     177      14     183     186      13
     180     183      14     180     186      14     192     195      13     189
     192      14     189     195      14     201     204      13     198     201
      14     198     204      14     210     213      13     207     210      14
     207     213      14     219     222      13     216     219      14     216
     222      14     228     231      13     225     228      14     225     231
      14     237     240      13     234     237      14     234     240      14
     246     249      13     243     246      14     243     249      14     255
     258      13     252     255      14     252     258      14     264     267
      13     261     264      14     261     267      14     273     276      13
     270     273      14     270     276      14     282     285      13     279
     282      14     279     285      14     291     294      13     288     291
      14     288     294      14     300     303      13     297     300      14
     297     303      14     309     312      13     306     309      14     306
     312      14     318     321      13     315     318      14     315     321
      14     327     330      13     324     327      14     324     330      14
     336     339      13     333     336      14     333     339      14     345
     348      13     342     345      14     342     348      14     354     357
      13     351     354      14     351     357      14     363     366      13
     360     363      14     360     366      14     372     375      13     369
     372      14     369     375      14     381     384      13     378     381
      14     378     384      14     390     393      13     387     390      14
     387     393      14     399     402      13     396     399      14     396
     402      14     408     411      13     405     408      14     405     411
      14     417     420      13     414     417      14     414     420      14
     426     429      13     423     426      14     423     429      14     435
     438      13     432     435      14     432     438      14     444     447
      13     441     444      14     441     447      14     453     456      13
     450     453      14     450     456      14     462     465      13     459
     462      14     459     465      14     471     474      13     468     471
      14     468     474      14     480     483      13     477     480      14
     477     483      14     489     492      13     486     489      14     486
     492      14     498     501      13     495     498      14     495     501
      14     507     510      13     504     507      14     504     510      14
     516     519      13     513     516      14     513     519      14     525
     528      13     522     525      14     522     528      14     534     537
      13     531     534      14     531     537      14     543     546      13
     540     543      14     540     546      14     552     555      13     549
     552      14     549     555      14     561     564      13     558     561
      14     558     564      14     570     573      13     567     570      14
     567     573      14     579     582      13     576     579      14     576
     582      14     588     591      13     585     588      14     585     591
      14     597     600      13     594     597      14     594     600      14
     606     609      13     603     606      14     603     609      14     615
     618      13     612     615      14     612     618      14     624     627
      13     621     624      14     621     627      14     633     636      13
     630     633      14     630     636      14     642     645      13     639
     642      14     639     645      14     651     654      13     648     651
      14     648     654      14     660     663      13     657     660      14
     657     663      14     669     672      13     666     669      14     666
     672      14     678     681      13     675     678      14     675     681
      14     687     690      13     684     687      14     684     690      14
     696     699      13     693     696      14     693     699      14     705
     708      13     702     705      14     702     708      14     714     717
      13     711     714      14     711     717      14     723     726      13
     720     723      14     720     726      14     732     735      13     729
     732      14     729     735      14     741     744      13     738     741
      14     738     744      14     750     753      13     747     750      14
     747     753      14     759     762      13     756     759      14     756
     762      14     768     771      13     765     768      14     765     771
      14     777     780      13     774     777      14     774     780      14
     786     789      13     783     786      14     783     789      14     795
     798      13     792     795      14     792     798      14     804     807
      13     801     804      14     801     807      14     813     816      13
     810     813      14     810     816      14     822     825      13     819
     822      14     819     825      14     831     834      13     828     831
      14     828     834      14     840     843      13     837     840      14
     837     843      14     849     852      13     846     849      14     846
     852      14     858     861      13     855     858      14     855     861
      14     867     870      13     864     867      14     864     870      14
     876     879      13     873     876      14     873     879      14     885
     888      13     882     885      14     882     888      14     894     897
      13     891     894      14     891     897      14     903     906      13
     900     903      14     900     906      14     912     915      13     909
     912      14     909     915      14     921     924      13     918     921
      14     918     924      14     930     933      13     927     930      14
     927     933      14     939     942      13     936     939      14     936
     942      14     948     951      13     945     948      14     945     951
      14     957     960      13     954     957      14     954     960      14
     966     969      13     963     966      14     963     969      14     975
     978      13     972     975      14     972     978      14     984     987
      13     981     984      14     981     987      14     993     996      13
     990     993      14     990     996      14    1002    1005      13     999
    1002      14     999    1005      14    1011    1014      13    1008    1011
      14    1008    1014      14    1020    1023      13    1017    1020      14
    1017    1023      14    1029    1032      13    1026    1029      14    1026
    1032      14    1038    1041      13    1035    1038      14    1035    1041
      14    1047    1050      13    1044    1047      14    1044    1050      14
    1056    1059      13    1053    1056      14    1053    1059      14    1065
    1068      13    1062    1065      14    1062    1068      14    1074    1077
      13    1071    1074      14    1071    1077      14    1083    1086      13
    1080    1083      14    1080    1086      14    1092    1095      13    1089
    1092      14    1089    1095      14    1101    1104      13    1098    1101
      14    1098    1104      14    1110    1113      13    1107    1110      14
    1107    1113      14    1119    1122      13    1116    1119      14    1116
    1122      14    1128    1131      13    1125    1128      14    1125    1131
      14    1137    1140      13    1134    1137      14    1134    1140      14
    1146    1149      13    1143    1146      14    1143    1149      14    1155
    1158      13    1152    1155      14    1152    1158      14    1164    1167
      13    1161    1164      14    1161    1167      14    1173    1176      13
    1170    1173      14    1170    1176      14    1182    1185      13    1179
    1182      14    1179    1185      14    1191    1194      13    1188    1191
      14    1188    1194      14    1200    1203      13    1197    1200      14
    1197    1203      14    1209    1212      13    1206    1209      14    1206
    1212      14    1218    1221      13    1215    1218      14    1215    1221
      14    1227    1230      13    1224    1227      14    1224    1230      14
    1236    1239      13    1233    1236      14    1233    1239      14    1245
    1248      13    1242    1245      14    1242    1248      14    1254    1257
      13    1251    1254      14    1251    1257      14    1263    1266      13
    1260    1263      14    1260    1266      14    1272    1275      13    1269
    1272      14    1269    1275      14    1281    1284      13    1278    1281
      14    1278    1284      14    1290    1293      13    1287    1290      14
    1287    1293      14    1299    1302      13    1296    1299      14    1296
    1302      14    1308    1311      13    1305    1308      14    1305    1311
      14    1317    1320      13    1314    1317      14    1314    1320      14
    1326    1329      13    1323    1326      14    1323    1329      14    1335
    1338      13    1332    1335      14    1332    1338      14    1344    1347
      13    1341    1344      14    1341    1347      14    1353    1356      13
    1350    1353      14    1350    1356      14    1362    1365      13    1359
    1362      14    1359    1365      14    1371    1374      13    1368    1371
      14    1368    1374      14    1380    1383      13    1377    1380      14
    1377    1383      14    1389    1392      13    1386    1389      14    1386
    1392      14    1398    1401      13    1395    1398      14    1395    1401
      14    1407    1410      13    1404    1407      14    1404    1410      14
    1416    1419      13    1413    1416      14    1413    1419      14    1425
    1428      13    1422    1425      14    1422    1428      14    1434    1437
      13    1431    1434      14    1431    1437      14    1443    1446      13
    1440    1443      14    1440    1446      14    1452    1455      13    1449
    1452      14    1449    1455      14    1461    1464      13    1458    1461
      14    1458    1464      14    1470    1473      13    1467    1470      14
    1467    1473      14    1479    1482      13    1476    1479      14    1476
    1482      14    1488    1491      13    1485    1488      14    1485    1491
      14    1497    1500      13    1494    1497      14    1494    1500      14
    1506    1509      13    1503    1506      14    1503    1509      14    1515
    1518      13    1512    1515      14    1512    1518      14    1524    1527
      13    1521    1524      14    1521    1527      14    1533    1536      13
    1530    1533      14    1530    1536      14    1542    1545      13    1539
    1542      14    1539    1545      14    1551    1554      13    1548    1551
      14    1548    1554      14    1560    1563      13    1557    1560      14
    1557    1563      14    1569    1572      13    1566    1569      14    1566
    1572      14    1578    1581      13    1575    1578      14    1575    1581
      14    1587    1590      13    1584    1587      14    1584    1590      14
    1596    1599      13    1593    1596      14    1593    1599      14    1605
    1608      13    1602    1605      14    1602    1608      14    1614    1617
      13    1611    1614      14    1611    1617      14    1623    1626      13
    1620    1623      14    1620    1626      14    1632    1635      13    1629
    1632      14    1629    1635      14    1641    1644      13    1638    1641
      14    1638    1644      14    1650    1653      13    1647    1650      14
    1647    1653      14    1659    1662      13    1656    1659      14    1656
    1662      14    1668    1671      13    1665    1668      14    1665    1671
      14    1677    1680      13    1674    1677      14    1674    1680      14
    1686    1689      13    1683    1686      14    1683    1689      14    1695
    1698      13    1692    1695      14    1692    1698      14    1704    1707
      13    1701    1704      14    1701    1707      14    1713    1716      13
    1710    1713      14    1710    1716      14    1722    1725      13    1719
    1722      14    1719    1725      14    1731    1734      13    1728    1731
      14    1728    1734      14    1740    1743      13    1737    1740      14
    1737    1743      14    1749    1752      13    1746    1749      14    1746
    1752      14    1758    1761      13    1755    1758      14    1755    1761
      14    1767    1770      13    1764    1767      14    1764    1770      14
    1776    1779      13    1773    1776      14    1773    1779      14    1785
    1788      13    1782    1785      14    1782    1788      14    1794    1797
      13    1791    1794      14    1791    1797      14    1803    1806      13
    1800    1803      14    1800    1806      14    1812    1815      13    1809
    1812      14    1809    1815      14    1821    1824      13    1818    1821
      14    1818    1824      14    1830    1833      13    1827    1830      14
    1827    1833      14    1839    1842      13    1836    1839      14    1836
    1842      14    1848    1851      13    1845    1848      14    1845    1851
      14    1857    1860      13    1854    1857      14    1854    1860      14
    1866    1869      13    1863    1866      14    1863    1869      14    1875
    1878      13    1872    1875      14    1872    1878      14    1884    1887
      13    1881    1884      14    1881    1887      14    1893    1896      13
    1890    1893      14    1890    1896      14    1902    1905      13    1899
    1902      14    1899    1905      14    1911    1914      13    1908    1911
      14    1908    1914      14    1920    1923      13    1917    1920      14
    1917    1923      14    1929    1932      13    1926    1929      14    1926
    1932      14    1938    1941      13    1935    1938      14    1935    1941
      14    1947    1950      13    1944    1947      14    1944    1950      14
    1956    1959      13    1953    1956      14    1953    1959      14    1965
    1968      13    1962    1965      14    1962    1968      14    1974    1977
      13    1971    1974      14    1971    1977      14    1983    1986      13
    1980    1983      14    1980    1986      14    1992    1995      13    1989
    1992      14    1989    1995      14    2001    2004      13    1998    2001
      14    1998    2004      14    2010    2013      13    2007    2010      14
    2007    2013      14    2019    2022      13    2016    2019      14    2016
    2022      14    2028    2031      13    2025    2028      14    2025    2031
      14    2037    2040      13    2034    2037      14    2034    2040      14
    2046    2049      13    2043    2046      14    2043    2049      14    2055
    2058      13    2052    2055      14    2052    2058      14    2064    2067
      13    2061    2064      14    2061    2067      14    2073    2076      13
    2070    2073      14    2070    2076      14    2082    2085      13    2079
    2082      14    2079    2085      14    2091    2094      13    2088    2091
      14    2088    2094      14    2100    2103      13    2097    2100      14
    2097    2103      14    2109    2112      13    2106    2109      14    2106
    2112      14    2118    2121      13    2115    2118      14    2115    2121
      14    2127    2130      13    2124    2127      14    2124    2130      14
    2136    2139      13    2133    2136      14    2133    2139      14    2145
    2148      13    2142    2145      14    2142    2148      14    2154    2157
      13    2151    2154      14    2151    2157      14    2163    2166      13
    2160    2163      14    2160    2166      14    2172    2175      13    2169
    2172      14    2169    2175      14    2181    2184      13    2178    2181
      14    2178    2184      14    2190    2193      13    2187    2190      14
    2187    2193      14    2199    2202      13    2196    2199      14    2196
    2202      14    2208    2211      13    2205    2208      14    2205    2211
      14    2217    2220      13    2214    2217      14    2214    2220      14
    2226    2229      13    2223    2226      14    2223    2229      14    2235
    2238      13    2232    2235      14    2232    2238      14    2244    2247
      13    2241    2244      14    2241    2247      14    2253    2256      13
    2250    2253      14    2250    2256      14    2262    2265      13    2259
    2262      14    2259    2265      14    2271    2274      13    2268    2271
      14    2268    2274      14    2280    2283      13    2277    2280      14
    2277    2283      14    2289    2292      13    2286    2289      14    2286
    2292      14    2298    2301      13    2295    2298      14    2295    2301
      14    2307    2310      13    2304    2307      14    2304    2310      14
    2316    2319      13    2313    2316      14    2313    2319      14    2325
    2328      13    2322    2325      14    2322    2328      14    2334    2337
      13    2331    2334      14    2331    2337      14    2343    2346      13
    2340    2343      14    2340    2346      14    2352    2355      13    2349
    2352      14    2349    2355      14    2361    2364      13    2358    2361
      14    2358    2364      14    2370    2373      13    2367    2370      14
    2367    2373      14    2379    2382      13    2376    2379      14    2376
    2382      14    2388    2391      13    2385    2388      14    2385    2391
      14    2397    2400      13    2394    2397      14    2394    2400      14
    2406    2409      13    2403    2406      14    2403    2409      14    2415
    2418      13    2412    2415      14    2412    2418      14    2424    2427
      13    2421    2424      14    2421    2427      14    2433    2436      13
    2430    2433      14    2430    2436      14    2442    2445      13    2439
    2442      14    2439    2445      14    2451    2454      13    2448    2451
      14    2448    2454      14    2460    2463      13    2457    2460      14
    2457    2463      14    2469    2472      13    2466    2469      14    2466
    2472      14    2478    2481      13    2475    2478      14    2475    2481
      14    2487    2490      13    2484    2487      14    2484    2490      14
    2496    2499      13    2493    2496      14    2493    2499      14    2505
    2508      13    2502    2505      14    2502    2508      14    2514    2517
      13    2511    2514      14    2511    2517      14    2523    2526      13
    2520    2523      14    2520    2526      14    2532    2535      13    2529
    2532      14    2529    2535      14    2541    2544      13    2538    2541
      14    2538    2544      14    2550    2553      13    2547    2550      14
    2547    2553      14    2559    2562      13    2556    2559      14    2556
    2562      14    2568    2571      13    2565    2568      14    2565    2571
      14    2577    2580      13    2574    2577      14    2574    2580      14
    2586    2589      13    2583    2586      14    2583    2589      14    2595
    2598      13    2592    2595      14    2592    2598      14    2604    2607
      13    2601    2604      14    2601    2607      14    2613    2616      13
    2610    2613      14    2610    2616      14    2622    2625      13    2619
    2622      14    2619    2625      14    2631    2634      13    2628    2631
      14    2628    2634      14    2640    2643      13    2637    2640      14
    2637    2643      14    2649    2652      13    2646    2649      14    2646
    2652      14    2658    2661      13    2655    2658      14    2655    2661
      14    2667    2670      13    2664    2667      14    2664    2670      14
    2676    2679      13    2673    2676      14    2673    2679      14    2685
    2688      13    2682    2685      14    2682    2688      14    2694    2697
      13    2691    2694      14    2691    2697      14    2703    2706      13
    2700    2703      14    2700    2706      14    2712    2715      13    2709
    2712      14    2709    2715      14    2721    2724      13    2718    2721
      14    2718    2724      14    2730    2733      13    2727    2730      14
    2727    2733      14    2739    2742      13    2736    2739      14    2736
    2742      14    2748    2751      13    2745    2748      14    2745    2751
      14    2757    2760      13    2754    2757      14    2754    2760      14
    2766    2769      13    2763    2766      14    2763    2769      14    2775
    2778      13    2772    2775      14    2772    2778      14    2784    2787
      13    2781    2784      14    2781    2787      14    2793    2796      13
    2790    2793      14    2790    2796      14    2802    2805      13    2799
    2802      14    2799    2805      14    2811    2814      13    2808    2811
      14    2808    2814      14    2820    2823      13    2817    2820      14
    2817    2823      14    2829    2832      13    2826    2829      14    2826
    2832      14    2838    2841      13    2835    2838      14    2835    2841
      14    2847    2850      13    2844    2847      14    2844    2850      14
    2856    2859      13    2853    2856      14    2853    2859      14    2865
    2868      13    2862    2865      14    2862    2868      14    2874    2877
      13    2871    2874      14    2871    2877      14    2883    2886      13
    2880    2883      14    2880    2886      14    2892    2895      13    2889
    2892      14    2889    2895      14    2901    2904      13    2898    2901
      14    2898    2904      14    2910    2913      13    2907    2910      14
    2907    2913      14    2919    2922      13    2916    2919      14    2916
    2922      14    2928    2931      13    2925    2928      14    2925    2931
      14    2937    2940      13    2934    2937      14    2934    2940      14
    2946    2949      13    2943    2946      14    2943    2949      14    2955
    2958      13    2952    2955      14    2952    2958      14    2964    2967
      13    2961    2964      14    2961    2967      14    2973    2976      13
    2970    2973      14    2970    2976      14    2982    2985      13    2979
    2982      14    2979    2985      14    2991    2994      13    2988    2991
      14    2988    2994      14    3000    3003      13    2997    3000      14
    2997    3003      14    3009    3012      13    3006    3009      14    3006
    3012      14    3018    3021      13    3015    3018      14    3015    3021
      14    3027    3030      13    3024    3027      14    3024    3030      14
    3036    3039      13    3033    3036      14    3033    3039      14    3045
    3048      13    3042    3045      14    3042    3048      14    3054    3057
      13    3051    3054      14    3051    3057      14    3063    3066      13
    3060    3063      14    3060    3066      14    3072    3075      13    3069
    3072      14    3069    3075      14    3081    3084      13    3078    3081
      14    3078    3084      14    3090    3093      13    3087    3090      14
    3087    3093      14    3099    3102      13    3096    3099      14    3096
    3102      14    3108    3111      13    3105    3108      14    3105    3111
      14    3117    3120      13    3114    3117      14    3114    3120      14
    3126    3129      13    3123    3126      14    3123    3129      14    3135
    3138      13    3132    3135      14    3132    3138      14    3144    3147
      13    3141    3144      14    3141    3147      14    3153    3156      13
    3150    3153      14    3150    3156      14    3162    3165      13    3159
    3162      14    3159    3165      14    3171    3174      13    3168    3171
      14    3168    3174      14    3180    3183      13    3177    3180      14
    3177    3183      14    3189    3192      13    3186    3189      14    3186
    3192      14    3198    3201      13    3195    3198      14    3195    3201
      14    3207    3210      13    3204    3207      14    3204    3210      14
    3216    3219      13    3213    3216      14    3213    3219      14    3225
    3228      13    3222    3225      14    3222    3228      14    3234    3237
      13    3231    3234      14    3231    3237      14    3243    3246      13
    3240    3243      14    3240    3246      14    3252    3255      13    3249
    3252      14    3249    3255      14    3261    3264      13    3258    3261
      14    3258    3264      14    3270    3273      13    3267    3270      14
    3267    3273      14    3279    3282      13    3276    3279      14    3276
    3282      14    3288    3291      13    3285    3288      14    3285    3291
      14    3297    3300      13    3294    3297      14    3294    3300      14
    3306    3309      13    3303    3306      14    3303    3309      14    3315
    3318      13    3312    3315      14    3312    3318      14    3324    3327
      13    3321    3324      14    3321    3327      14    3333    3336      13
    3330    3333      14    3330    3336      14    3342    3345      13    3339
    3342      14    3339    3345      14    3351    3354      13    3348    3351
      14    3348    3354      14    3360    3363      13    3357    3360      14
    3357    3363      14    3369    3372      13    3366    3369      14    3366
    3372      14    3378    3381      13    3375    3378      14    3375    3381
      14    3387    3390      13    3384    3387      14    3384    3390      14
    3396    3399      13    3393    3396      14    3393    3399      14    3405
    3408      13    3402    3405      14    3402    3408      14    3414    3417
      13    3411    3414      14    3411    3417      14    3423    3426      13
    3420    3423      14    3420    3426      14    3432    3435      13    3429
    3432      14    3429    3435      14    3441    3444      13    3438    3441
      14    3438    3444      14    3450    3453      13    3447    3450      14
    3447    3453      14    3459    3462      13    3456    3459      14    3456
    3462      14    3468    3471      13    3465    3468      14    3465    3471
      14    3477    3480      13    3474    3477      14    3474    3480      14
    3486    3489      13    3483    3486      14    3483    3489      14    3495
    3498      13    3492    3495      14    3492    3498      14    3504    3507
      13    3501    3504      14    3501    3507      14    3513    3516      13
    3510    3513      14    3510    3516      14    3522    3525      13    3519
    3522      14    3519    3525      14    3531    3534      13    3528    3531
      14    3528    3534      14    3540    3543      13    3537    3540      14
    3537    3543      14    3549    3552      13    3546    3549      14    3546
    3552      14    3558    3561      13    3555    3558      14    3555    3561
      14    3567    3570      13    3564    3567      14    3564    3570      14
    3576    3579      13    3573    3576      14    3573    3579      14    3585
    3588      13    3582    3585      14    3582    3588      14    3594    3597
      13    3591    3594      14    3591    3597      14    3603    3606      13
    3600    3603      14    3600    3606      14    3612    3615      13    3609
    3612      14    3609    3615      14    3621    3624      13    3618    3621
      14    3618    3624      14    3630    3633      13    3627    3630      14
    3627    3633      14
%FLAG BONDS_WITHOUT_HYDROGEN                                                    
%FORMAT(10I8)                                                                   
     102     111       3      81      90       3      78      81       4      78
     102       4      72      78       4      66      72       6      60      66
       7      54      57       8      54      60       7      48      54       6
      48      72       3      45      48       6      42      45       7      39
      45       7      36      42       8      33      39       9      30      42
      11      27      39      11      24      27      12      24      30      12
      12      24       3       0      24       3
%FLAG ANGLES_INC_HYDROGEN                                                       
%FORMAT(10I8)                                                                   
     117     111     120       1     114     111     117       1     114     111
     120       1     108     102     111       2     105     102     108       3
     105     102     111       2     102     111     114       4     102     111
     117       4     102     111     120       4      96      90      99       1
      93      90      96       1      93      90      99       1      87      81
      90       2      84      81      87       3      84      81      90       2
      81      90      93       4      81      90      96       4      81      90
      99       4      78      81      84       6      78      81      87       6
      78     102     105       6      78     102     108       6      75      72
      78       6      69      66      72       8      66      72      75       9
      63      60      66      11      60      66      69      11      54      60
      63      11      51      48      54      16      51      48      72       4
      48      72      75       2      45      48      51      16      39      33
     123      19      21      12      24       4      18      12      21       1
      18      12      24       4      15      12      18       1      15      12
      21       1      15      12      24       4       9       0      24       4
       6       0       9       1       6       0      24       4       3       0
       6       1       3       0       9       1       3       0      24       4
     129     126     132      28     138     135     141      28     147     144
     150      28     156     153     159      28     165     162     168      28
     174     171     177      28     183     180     186      28     192     189
     195      28     201     198     204      28     210     207     213      28
     219     216     222      28     228     225     231      28     237     234
     240      28     246     243     249      28     255     252     258      28
     264     261     267      28     273     270     276      28     282     279
     285      28     291     288     294      28     300     297     303      28
     309     306     312      28     318     315     321      28     327     324
     330      28     336     333     339      28     345     342     348      28
     354     351     357      28     363     360     366      28     372     369
     375      28     381     378     384      28     390     387     393      28
     399     396     402      28     408     405     411      28     417     414
     420      28     426     423     429      28     435     432     438      28
     444     441     447      28     453     450     456      28     462     459
     465      28     471     468     474      28     480     477     483      28
     489     486     492      28     498     495     501      28     507     504
     510      28     516     513     519      28     525     522     528      28
     534     531     537      28     543     540     546      28     552     549
     555      28     561     558     564      28     570     567     573      28
     579     576     582      28     588     585     591      28     597     594
     600      28     606     603     609      28     615     612     618      28
     624     621     627      28     633     630     636      28     642     639
     645      28     651     648     654      28     660     657     663      28
     669     666     672      28     678     675     681      28     687     684
     690      28     696     693     699      28     705     702     708      28
     714     711     717      28     723     720     726      28     732     729
     735      28     741     738     744      28     750     747     753      28
     759     756     762      28     768     765     771      28     777     774
     780      28     786     783     789      28     795     792     798      28
     804     801     807      28     813     810     816      28     822     819
     825      28     831     828     834      28     840     837     843      28
     849     846     852      28     858     855     861      28     867     864
     870      28     876     873     879      28     885     882     888      28
     894     891     897      28     903     900     906      28     912     909
     915      28     921     918     924      28     930     927     933      28
     939     936     942      28     948     945     951      28     957     954
     960      28     966     963     969      28     975     972     978      28
     984     981     987      28     993     990     996      28    1002     999
    1005      28    1011    1008    1014      28    1020    1017    1023      28
    1029    1026    1032      28    1038    1035    1041      28    1047    1044
    1050      28    1056    1053    1059      28    1065    1062    1068      28
    1074    1071    1077      28    1083    1080    1086      28    1092    1089
    1095      28    1101    1098    1104      28    1110    1107    1113      28
    1119    1116    1122      28    1128    1125    1131      28    1137    1134
    1140      28    1146    1143    1149      28    1155    1152    1158      28
    1164    1161    1167      28    1173    1170    1176      28    1182    1179
    1185      28    1191    1188    1194      28    1200    1197    1203      28
    1209    1206    1212      28    1218    1215    1221      28    1227    1224
    1230      28    1236    1233    1239      28    1245    1242    1248      28
    1254    1251    1257      28    1263    1260    1266      28    1272    1269
    1275      28    1281    1278    1284      28    1290    1287    1293      28
    1299    1296    1302      28    1308    1305    1311      28    1317    1314
    1320      28    1326    1323    1329      28    1335    1332    1338      28
    1344    1341    1347      28    1353    1350    1356      28    1362    1359
    1365      28    1371    1368    1374      28    1380    1377    1383      28
    1389    1386    1392      28    1398    1395    1401      28    1407    1404
    1410      28    1416    1413    1419      28    1425    1422    1428      28
    1434    1431    1437      28    1443    1440    1446      28    1452    1449
    1455      28    1461    1458    1464      28    1470    1467    1473      28
    1479    1476    1482      28    1488    1485    1491      28    1497    1494
    1500      28    1506    1503    1509      28    1515    1512    1518      28
    1524    1521    1527      28    1533    1530    1536      28    1542    1539
    1545      28    1551    1548    1554      28    1560    1557    1563      28
    1569    1566    1572      28    1578    1575    1581      28    1587    1584
    1590      28    1596    1593    1599      28    1605    1602    1608      28
    1614    1611    1617      28    1623    1620    1626      28    1632    1629
    1635      28    1641    1638    1644      28    1650    1647    1653      28
    1659    1656    1662      28    1668    1665    1671      28    1677    1674
    1680      28    1686    1683    1689      28    1695    1692    1698      28
    1704    1701    1707      28    1713    1710    1716      28    1722    1719
    1725      28    1731    1728    1734      28    1740    1737    1743      28
    1749    1746    1752      28    1758    1755    1761      28    1767    1764
    1770      28    1776    1773    1779      28    1785    1782    1788      28
    1794    1791    1797      28    1803    1800    1806      28    1812    1809
    1815      28    1821    1818    1824      28    1830    1827    1833      28
    1839    1836    1842      28    1848    1845    1851      28    1857    1854
    1860      28    1866    1863    1869      28    1875    1872    1878      28
    1884    1881    1887      28    1893    1890    1896      28    1902    1899
    1905      28    1911    1908    1914      28    1920    1917    1923      28
    1929    1926    1932      28    1938    1935    1941      28    1947    1944
    1950      28    1956    1953    1959      28    1965    1962    1968      28
    1974    1971    1977      28    1983    1980    1986      28    1992    1989
    1995      28    2001    1998    2004      28    2010    2007    2013      28
    2019    2016    2022      28    2028    2025    2031      28    2037    2034
    2040      28    2046    2043    2049      28    2055    2052    2058      28
    2064    2061    2067      28    2073    2070    2076      28    2082    2079
    2085      28    2091    2088    2094      28    2100    2097    2103      28
    2109    2106    2112      28    2118    2115    2121      28    2127    2124
    2130      28    2136    2133    2139      28    2145    2142    2148      28
    2154    2151    2157      28    2163    2160    2166      28    2172    2169
    2175      28    2181    2178    2184      28    2190    2187    2193      28
    2199    2196    2202      28    2208    2205    2211      28    2217    2214
    2220      28    2226    2223    2229      28    2235    2232    2238      28
    2244    2241    2247      28    2253    2250    2256      28    2262    2259
    2265      28    2271    2268    2274      28    2280    2277    2283      28
    2289    2286    2292      28    2298    2295    2301      28    2307    2304
    2310      28    2316    2313    2319      28    2325    2322    2328      28
    2334    2331    2337      28    2343    2340    2346      28    2352    2349
    2355      28    2361    2358    2364      28    2370    2367    2373      28
    2379    2376    2382      28    2388    2385    2391      28    2397    2394
    2400      28    2406    2403    2409      28    2415    2412    2418      28
    2424    2421    2427      28    2433    2430    2436      28    2442    2439
    2445      28    2451    2448    2454      28    2460    2457    2463      28
    2469    2466    2472      28    2478    2475    2481      28    2487    2484
    2490      28    2496    2493    2499      28    2505    2502    2508      28
    2514    2511    2517      28    2523    2520    2526      28    2532    2529
    2535      28    2541    2538    2544      28    2550    2547    2553      28
    2559    2556    2562      28    2568    2565    2571      28    2577    2574
    2580      28    2586    2583    2589      28    2595    2592    2598      28
    2604    2601    2607      28    2613    2610    2616      28    2622    2619
    2625      28    2631    2628    2634      28    2640    2637    2643      28
    2649    2646    2652      28    2658    2655    2661      28    2667    2664
    2670      28    2676    2673    2679      28    2685    2682    2688      28
    2694    2691    2697      28    2703    2700    2706      28    2712    2709
    2715      28    2721    2718    2724      28    2730    2727    2733      28
    2739    2736    2742      28    2748    2745    2751      28    2757    2754
    2760      28    2766    2763    2769      28    2775    2772    2778      28
    2784    2781    2787      28    2793    2790    2796      28    2802    2799
    2805      28    2811    2808    2814      28    2820    2817    2823      28
    2829    2826    2832      28    2838    2835    2841      28    2847    2844
    2850      28    2856    2853    2859      28    2865    2862    2868      28
    2874    2871    2877      28    2883    2880    2886      28    2892    2889
    2895      28    2901    2898    2904      28    2910    2907    2913      28
    2919    2916    2922      28    2928    2925    2931      28    2937    2934
    2940      28    2946    2943    2949      28    2955    2952    2958      28
    2964    2961    2967      28    2973    2970    2976      28    2982    2979
    2985      28    2991    2988    2994      28    3000    2997    3003      28
    3009    3006    3012      28    3018    3015    3021      28    3027    3024
    3030      28    3036    3033    3039      28    3045    3042    3048      28
    3054    3051    3057      28    3063    3060    3066      28    3072    3069
    3075      28    3081    3078    3084      28    3090    3087    3093      28
    3099    3096    3102      28    3108    3105    3111      28    3117    3114
    3120      28    3126    3123    3129      28    3135    3132    3138      28
    3144    3141    3147      28    3153    3150    3156      28    3162    3159
    3165      28    3171    3168    3174      28    3180    3177    3183      28
    3189    3186    3192      28    3198    3195    3201      28    3207    3204
    3210      28    3216    3213    3219      28    3225    3222    3228      28
    3234    3231    3237      28    3243    3240    3246      28    3252    3249
    3255      28    3261    3258    3264      28    3270    3267    3273      28
    3279    3276    3282      28    3288    3285    3291      28    3297    3294
    3300      28    3306    3303    3309      28    3315    3312    3318      28
    3324    3321    3327      28    3333    3330    3336      28    3342    3339
    3345      28    3351    3348    3354      28    3360    3357    3363      28
    3369    3366    3372      28    3378    3375    3381      28    3387    3384
    3390      28    3396    3393    3399      28    3405    3402    3408      28
    3414    3411    3417      28    3423    3420    3426      28    3432    3429
    3435      28    3441    3438    3444      28    3450    3447    3453      28
    3459    3456    3462      28    3468    3465    3471      28    3477    3474
    3480      28    3486    3483    3489      28    3495    3492    3498      28
    3504    3501    3507      28    3513    3510    3516      28    3522    3519
    3525      28    3531    3528    3534      28    3540    3537    3543      28
    3549    3546    3552      28    3558    3555    3561      28    3567    3564
    3570      28    3576    3573    3579      28    3585    3582    3588      28
    3594    3591    3597      28    3603    3600    3606      28    3612    3609
    3615      28    3621    3618    3624      28    3630    3627    3633      28
%FLAG ANGLES_WITHOUT_HYDROGEN                                                   
%FORMAT(10I8)                                                                   
      81      78     102       5      78      81      90       7      78     102
     111       7      72      78      81       5      72      78     102       5
      66      72      78      10      60      66      72      12      57      54
      60      13      54      48      72      14      54      60      66      15
      48      54      57      17      48      54      60      12      48      72
      66      14      48      72      78       7      45      48      54      18
      45      48      72      14      42      45      48      12      39      45
      42      15      39      45      48      12      36      42      45      13
      33      39      45      20      30      42      36      21      30      42
      45      22      27      24      30      23      27      39      33      24
      27      39      45      22      24      27      39      25      24      30
      42      25      12      24      27      26      12      24      30      26
       0      24      12      27       0      24      27      26       0      24
      30      26
%FLAG DIHEDRALS_INC_HYDROGEN                                                    
%FORMAT(10I8)                                                                   
     108     102     111     114       1     108     102     111     117       1
     108     102     111     120       1     105     102     111     114       1
     105     102     111     117       1     105     102     111     120       1
      87      81      78     102       3      87      81      90      93       1
      87      81      90      96       1      87      81      90      99       1
      84      81      78     102       3      84      81      90      93       1
      84      81      90      96       1      84      81      90      99       1
      81      78     102     105       3      81      78     102     108       3
      78      81      90      93       1      78      81      90      96       1
      78      81      90      99       1      78     102     111     114       1
      78     102     111     117       1      78     102     111     120       1
      75      72      78      81       3      75      72      78     102       3
      72      78      81      84       3      72      78      81      87       3
      72      78     102     105       3      72      78     102     108       3
      69      66      72      75       4      69      66      72      78       4
      63      60      66      69       5      63      60      66      72       5
      60      66      72      75       4      57      54      60      63       5
      54      48      72      75       1      54      60      66      69       5
      51      48      54      57       4      51      48      54      60       6
      51      48     -54      60       4      51      48     -54      60       7
      51      48      72      66       1      51      48      72      75       1
      51      48      72      78       1      48      54      60      63       5
      48      72      66      69       4      45      39      33     123       8
      45      48      72      75       1      42      45      48      51       6
      42      45     -48      51       4      42      45     -48      51       7
      39      45      48      51       6      39      45     -48      51       4
      39      45     -48      51       7      27      39      33     123       8
      21      12      24      27      10      21      12     -24      27      11
      21      12      24      30      10      21      12     -24      30      11
      18      12      24      27      10      18      12     -24      27      11
      18      12      24      30      10      18      12     -24      30      11
      15      12      24      27      10      15      12     -24      27      11
      15      12      24      30      10      15      12     -24      30      11
       9       0      24      12      12       9       0      24      27      10
       9       0     -24      27      11       9       0      24      30      10
       9       0     -24      30      11       6       0      24      12      12
       6       0      24      27      10       6       0     -24      27      11
       6       0      24      30      10       6       0     -24      30      11
       3       0      24      12      12       3       0      24      27      10
       3       0     -24      27      11       3       0      24      30      10
       3       0     -24      30      11       0      24      12      15      12
       0      24      12      18      12       0      24      12      21      12
      60      72     -66     -69      13      54      66     -60     -63      13
%FLAG DIHEDRALS_WITHOUT_HYDROGEN                                                
%FORMAT(10I8)                                                                   
      90      81      78     102       2      90      81     -78     102       3
      81      78     102     111       2      81      78    -102     111       3
      72      78      81      90       2      72      78     -81      90       3
      72      78     102     111       2      72      78    -102     111       3
      66      72      78      81       3      66      72      78     102       3
      60      54     -48      72       4      60      66      72      78       4
      57      54      48      72       4      57      54      60      66       5
      54      48     -72      66       1      54      48      72      78       1
      54      60     -66      72       5      48      54     -60      66       5
      48      72     -66      60       4      48      72      78      81       2
      48      72     -78      81       3      48      72      78     102       2
      48      72     -78     102       3      45      48      54      57       4
      45      48      54      60       4      45      48      72      66       1
      45      48      72      78       1      42      45      48      54       4
      42      45      48      72       4      39      45      48      54       4
      39      45      48      72       4      36      42      45      39       5
      36      42      45      48       5      33      39      45      42       5
      33      39      45      48       5      30      24      27      39       9
      30      42     -45      39       5      30      42      45      48       5
      27      24      30      42       9      27      39     -45      42       5
      27      39      45      48       5      24      27      39      33       8
      24      27      39      45       8      24      30      42      36       8
      24      30     -42      45       8      12      24      27      39       9
      12      24      30      42       9       0      24      27      39       9
       0      24      30      42       9      60      48     -54     -57      13
      39      42     -45     -48      13      45      36     -42     -30      13
      45      33     -39     -27      13
%FLAG EXCLUDED_ATOMS_LIST                                                       
%FORMAT(10I8)                                                                   
       2       3       4       5       6       7       8       9      10      11
      14      15       3       4       5       9      10      11       4       5
       9      10      11       5       9      10      11       6       7       8
       9      10      11      14      15       7       8       9      10      11
       8       9      10      11       9      10      11      10      11      12
      13      14      15      16      11      12      14      15      16      17
      42      13      14      15      16      17      14      15      16      17
      42      14      15      16      17      15      16      17      18      19
      25      42      16      17      18      19      25      17      18      19
      20      21      23      25      26      27      42      18      19      20
      21      22      23      24      25      26      27      28      35      19
      20      21      23      25      26      27      20      21      22      23
      24      25      26      27      21      22      23      25      22      23
      24      25      26      27      23      24      25      24      25      26
      27      28      35      25      26      27      26      27      28      29
      30      31      35      36      37      38      27      28      35      28
      29      30      31      32      33      34      35      36      37      38
      39      40      41      29      30      31      32      33      34      35
      36      37      38      30      31      32      33      34      35      31
      32      33      34      35      32      33      34      35      33      34
      34       0      36      37      38      39      40      41      37      38
      39      40      41      38      39      40      41      39      40      41
      40      41      41       0       0      44      45      45       0      47
      48      48       0      50      51      51       0      53      54      54
       0      56      57      57       0      59      60      60       0      62
      63      63       0      65      66      66       0      68      69      69
       0      71      72      72       0      74      75      75       0      77
      78      78       0      80      81      81       0      83      84      84
       0      86      87      87       0      89      90      90       0      92
      93      93       0      95      96      96       0      98      99      99
       0     101     102     102       0     104     105     105       0     107
     108     108       0     110     111     111       0     113     114     114
       0     116     117     117       0     119     120     120       0     122
     123     123       0     125     126     126       0     128     129     129
       0     131     132     132       0     134     135     135       0     137
     138     138       0     140     141     141       0     143     144     144
       0     146     147     147       0     149     150     150       0     152
     153     153       0     155     156     156       0     158     159     159
       0     161     162     162       0     164     165     165       0     167
     168     168       0     170     171     171       0     173     174     174
       0     176     177     177       0     179     180     180       0     182
     183     183       0     185     186     186       0     188     189     189
       0     191     192     192       0     194     195     195       0     197
     198     198       0     200     201     201       0     203     204     204
       0     206     207     207       0     209     210     210       0     212
     213     213       0     215     216     216       0     218     219     219
       0     221     222     222       0     224     225     225       0     227
     228     228       0     230     231     231       0     233     234     234
       0     236     237     237       0     239     240     240       0     242
     243     243       0     245     246     246       0     248     249     249
       0     251     252     252       0     254     255     255       0     257
     258     258       0     260     261     261       0     263     264     264
       0     266     267     267       0     269     270     270       0     272
     273     273       0     275     276     276       0     278     279     279
       0     281     282     282       0     284     285     285       0     287
     288     288       0     290     291     291       0     293     294     294
       0     296     297     297       0     299     300     300       0     302
     303     303       0     305     306     306       0     308     309     309
       0     311     312     312       0     314     315     315       0     317
     318     318       0     320     321     321       0     323     324     324
       0     326     327     327       0     329     330     330       0     332
     333     333       0     335     336     336       0     338     339     339
       0     341     342     342       0     344     345     345       0     347
     348     348       0     350     351     351       0     353     354     354
       0     356     357     357       0     359     360     360       0     362
     363     363       0     365     366     366       0     368     369     369
       0     371     372     372       0     374     375     375       0     377
     378     378       0     380     381     381       0     383     384     384
       0     386     387     387       0     389     390     390       0     392
     393     393       0     395     396     396       0     398     399     399
       0     401     402     402       0     404     405     405       0     407
     408     408       0     410     411     411       0     413     414     414
       0     416     417     417       0     419     420     420       0     422
     423     423       0     425     426     426       0     428     429     429
       0     431     432     432       0     434     435     435       0     437
     438     438       0     440     441     441       0     443     444     444
       0     446     447     447       0     449     450     450       0     452
     453     453       0     455     456     456       0     458     459     459
       0     461     462     462       0     464     465     465       0     467
     468     468       0     470     471     471       0     473     474     474
       0     476     477     477       0     479     480     480       0     482
     483     483       0     485     486     486       0     488     489     489
       0     491     492     492       0     494     495     495       0     497
     498     498       0     500     501     501       0     503     504     504
       0     506     507     507       0     509     510     510       0     512
     513     513       0     515     516     516       0     518     519     519
       0     521     522     522       0     524     525     525       0     527
     528     528       0     530     531     531       0     533     534     534
       0     536     537     537       0     539     540     540       0     542
     543     543       0     545     546     546       0     548     549     549
       0     551     552     552       0     554     555     555       0     557
     558     558       0     560     561     561       0     563     564     564
       0     566     567     567       0     569     570     570       0     572
     573     573       0     575     576     576       0     578     579     579
       0     581     582     582       0     584     585     585       0     587
     588     588       0     590     591     591       0     593     594     594
       0     596     597     597       0     599     600     600       0     602
     603     603       0     605     606     606       0     608     609     609
       0     611     612     612       0     614     615     615       0     617
     618     618       0     620     621     621       0     623     624     624
       0     626     627     627       0     629     630     630       0     632
     633     633       0     635     636     636       0     638     639     639
       0     641     642     642       0     644     645     645       0     647
     648     648       0     650     651     651       0     653     654     654
       0     656     657     657       0     659     660     660       0     662
     663     663       0     665     666     666       0     668     669     669
       0     671     672     672       0     674     675     675       0     677
     678     678       0     680     681     681       0     683     684     684
       0     686     687     687       0     689     690     690       0     692
     693     693       0     695     696     696       0     698     699     699
       0     701     702     702       0     704     705     705       0     707
     708     708       0     710     711     711       0     713     714     714
       0     716     717     717       0     719     720     720       0     722
     723     723       0     725     726     726       0     728     729     729
       0     731     732     732       0     734     735     735       0     737
     738     738       0     740     741     741       0     743     744     744
       0     746     747     747       0     749     750     750       0     752
     753     753       0     755     756     756       0     758     759     759
       0     761     762     762       0     764     765     765       0     767
     768     768       0     770     771     771       0     773     774     774
       0     776     777     777       0     779     780     780       0     782
     783     783       0     785     786     786       0     788     789     789
       0     791     792     792       0     794     795     795       0     797
     798     798       0     800     801     801       0     803     804     804
       0     806     807     807       0     809     810     810       0     812
     813     813       0     815     816     816       0     818     819     819
       0     821     822     822       0     824     825     825       0     827
     828     828       0     830     831     831       0     833     834     834
       0     836     837     837       0     839     840     840       0     842
     843     843       0     845     846     846       0     848     849     849
       0     851     852     852       0     854     855     855       0     857
     858     858       0     860     861     861       0     863     864     864
       0     866     867     867       0     869     870     870       0     872
     873     873       0     875     876     876       0     878     879     879
       0     881     882     882       0     884     885     885       0     887
     888     888       0     890     891     891       0     893     894     894
       0     896     897     897       0     899     900     900       0     902
     903     903       0     905     906     906       0     908     909     909
       0     911     912     912       0     914     915     915       0     917
     918     918       0     920     921     921       0     923     924     924
       0     926     927     927       0     929     930     930       0     932
     933     933       0     935     936     936       0     938     939     939
       0     941     942     942       0     944     945     945       0     947
     948     948       0     950     951     951       0     953     954     954
       0     956     957     957       0     959     960     960       0     962
     963     963       0     965     966     966       0     968     969     969
       0     971     972     972       0     974     975     975       0     977
     978     978       0     980     981     981       0     983     984     984
       0     986     987     987       0     989     990     990       0     992
     993     993       0     995     996     996       0     998     999     999
       0    1001    1002    1002       0    1004    1005    1005       0    1007
    1008    1008       0    1010    1011    1011       0    1013    1014    1014
       0    1016    1017    1017       0    1019    1020    1020       0    1022
    1023    1023       0    1025    1026    1026       0    1028    1029    1029
       0    1031    1032    1032       0    1034    1035    1035       0    1037
    1038    1038       0    1040    1041    1041       0    1043    1044    1044
       0    1046    1047    1047       0    1049    1050    1050       0    1052
    1053    1053       0    1055    1056    1056       0    1058    1059    1059
       0    1061    1062    1062       0    1064    1065    1065       0    1067
    1068    1068       0    1070    1071    1071       0    1073    1074    1074
       0    1076    1077    1077       0    1079    1080    1080       0    1082
    1083    1083       0    1085    1086    1086       0    1088    1089    1089
       0    1091    1092    1092       0    1094    1095    1095       0    1097
    1098    1098       0    1100    1101    1101       0    1103    1104    1104
       0    1106    1107    1107       0    1109    1110    1110       0    1112
    1113    1113       0    1115    1116    1116       0    1118    1119    1119
       0    1121    1122    1122       0    1124    1125    1125       0    1127
    1128    1128       0    1130    1131    1131       0    1133    1134    1134
       0    1136    1137    1137       0    1139    1140    1140       0    1142
    1143    1143       0    1145    1146    1146       0    1148    1149    1149
       0    1151    1152    1152       0    1154    1155    1155       0    1157
    1158    1158       0    1160    1161    1161       0    1163    1164    1164
       0    1166    1167    1167       0    1169    1170    1170       0    1172
    1173    1173       0    1175    1176    1176       0    1178    1179    1179
       0    1181    1182    1182       0    1184    1185    1185       0    1187
    1188    1188       0    1190    1191    1191       0    1193    1194    1194
       0    1196    1197    1197       0    1199    1200    1200       0    1202
    1203    1203       0    1205    1206    1206       0    1208    1209    1209
       0    1211    1212    1212       0
%FLAG HBOND_ACOEF                                                               
%FORMAT(5E16.8)                                                                 
  0.00000000E+00
%FLAG HBOND_BCOEF                                                               
%FORMAT(5E16.8)                                                                 
  0.00000000E+00
%FLAG HBCUT                                                                     
%FORMAT(5E16.8)                                                                 
  0.00000000E+00
%FLAG AMBER_ATOM_TYPE                                                           
%FORMAT(20a4)                                                                   
c3  hc  hc  hc  c3  hc  hc  hc  c3  os  os  oh  o   c2  c2  c2  c3  hc  c2  o   
c2  ha  c2  ha  c3  h1  n3  c3  h1  h1  c3  hc  hc  hc  c3  h1  h1  c3  hc  hc  
hc  ho  OW  HW  HW  OW  HW  HW  OW  HW  HW  OW  HW  HW  OW  HW  HW  OW  HW  HW  
OW  HW  HW  OW  HW  HW  OW  HW  HW  OW  HW  HW  OW  HW  HW  OW  HW  HW  OW  HW  
HW  OW  HW  HW  OW  HW  HW  OW  HW  HW  OW  HW  HW  OW  HW  HW  OW  HW  HW  OW  
HW  HW  OW  HW  HW  OW  HW  HW  OW  HW  HW  OW  HW  HW  OW  HW  HW  OW  HW  HW  
OW  HW  HW  OW  HW  HW  OW  HW  HW  OW  HW  HW  OW  HW  HW  OW  HW  HW  OW  HW  
HW  OW  HW  HW  OW  HW  HW  OW  HW  HW  OW  HW  HW  OW  HW  HW  OW  HW  HW  OW  
HW  HW  OW  HW  HW  OW  HW  HW  OW  HW  HW  OW  HW  HW  OW  HW  HW  OW  HW  HW  
OW  HW  HW  OW  HW  HW  OW  HW  HW  OW  HW  HW  OW  HW  HW  OW  HW  HW  OW  HW  
HW  OW  HW  HW  OW  HW  HW  OW  HW  HW  OW  HW  HW  OW  HW  HW  OW  HW  HW  OW  
HW  HW  OW  HW  HW  OW  HW  HW  OW  HW  HW  OW  HW  HW  OW  HW  HW  OW  HW  HW  
OW  HW  HW  OW  HW  HW  OW  HW  HW  OW  HW  HW  OW  HW  HW  OW  HW  HW  OW  HW  
HW  OW  HW  HW  OW  HW  HW  OW  HW  HW  OW  HW  HW  OW  HW  HW  OW  HW  HW  OW  
HW  HW  OW  HW  HW  OW  HW  HW  OW  HW  HW  OW  HW  HW  OW  HW  HW  OW  HW  HW  
OW  HW  HW  OW  HW  HW  OW  HW  HW  OW  HW  HW  OW  HW  HW  OW  HW  HW  OW  HW  
HW  OW  HW  HW  OW  HW  HW  OW  HW  HW  OW  HW  HW  OW  HW  HW  OW  HW  HW  OW  
HW  HW  OW  HW  HW  OW  HW  HW  OW  HW  HW  OW  HW  HW  OW  HW  HW  OW  HW  HW  
OW  HW  HW  OW  HW  HW  OW  HW  HW  OW  HW  HW  OW  HW  HW  OW  HW  HW  OW  HW  
HW  OW  HW  HW  OW  HW  HW  OW  HW  HW  OW  HW  HW  OW  HW  HW  OW  HW  HW  OW  
HW  HW  OW  HW  HW  OW  HW  HW  OW  HW  HW  OW  HW  HW  OW  HW  HW  OW  HW  HW  
OW  HW  HW  OW  HW  HW  OW  HW  HW  OW  HW  HW  OW  HW  HW  OW  HW  HW  OW  HW  
HW  OW  HW  HW  OW  HW  HW  OW  HW  HW  OW  HW  HW  OW  HW  HW  OW  HW  HW  OW  
HW  HW  OW  HW  HW  OW  HW  HW  OW  HW  HW  OW  HW  HW  OW  HW  HW  OW  HW  HW  
OW  HW  HW  OW  HW  HW  OW  HW  HW  OW  HW  HW  OW  HW  HW  OW  HW  HW  OW  HW  
HW  OW  HW  HW  OW  HW  HW  OW  HW  HW  OW  HW  HW  OW  HW  HW  OW  HW  HW  OW  
HW  HW  OW  HW  HW  OW  HW  HW  OW  HW  HW  OW  HW  HW  OW  HW  HW  OW  HW  HW  
OW  HW  HW  OW  HW  HW  OW  HW  HW  OW  HW  HW  OW  HW  HW  OW  HW  HW  OW  HW  
HW  OW  HW  HW  OW  HW  HW  OW  HW  HW  OW  HW  HW  OW  HW  HW  OW  HW  HW  OW  
HW  HW  OW  HW  HW  OW  HW  HW  OW  HW  HW  OW  HW  HW  OW  HW  HW  OW  HW  HW  
OW  HW  HW  OW  HW  HW  OW  HW  HW  OW  HW  HW  OW  HW  HW  OW  HW  HW  OW  HW  
HW  OW  HW  HW  OW  HW  HW  OW  HW  HW  OW  HW  HW  OW  HW  HW  OW  HW  HW  OW  
HW  HW  OW  HW  HW  OW  HW  HW  OW  HW  HW  OW  HW  HW  OW  HW  HW  OW  HW  HW  
OW  HW  HW  OW  HW  HW  OW  HW  HW  OW  HW  HW  OW  HW  HW  OW  HW  HW  OW  HW  
HW  OW  HW  HW  OW  HW  HW  OW  HW  HW  OW  HW  HW  OW  HW  HW  OW  HW  HW  OW  
HW  HW  OW  HW  HW  OW  HW  HW  OW  HW  HW  OW  HW  HW  OW  HW  HW  OW  HW  HW  
OW  HW  HW  OW  HW  HW  OW  HW  HW  OW  HW  HW  OW  HW  HW  OW  HW  HW  OW  HW  
HW  OW  HW  HW  OW  HW  HW  OW  HW  HW  OW  HW  HW  OW  HW  HW  OW  HW  HW  OW  
HW  HW  OW  HW  HW  OW  HW  HW  OW  HW  HW  OW  HW  HW  OW  HW  HW  OW  HW  HW  
OW  HW  HW  OW  HW  HW  OW  HW  HW  OW  HW  HW  OW  HW  HW  OW  HW  HW  OW  HW  
HW  OW  HW  HW  OW  HW  HW  OW  HW  HW  OW  HW  HW  OW  HW  HW  OW  HW  HW  OW  
HW  HW  OW  HW  HW  OW  HW  HW  OW  HW  HW  OW  HW  HW  OW  HW  HW  OW  HW  HW  
OW  HW  HW  OW  HW  HW  OW  HW  HW  OW  HW  HW  OW  HW  HW  OW  HW  HW  OW  HW  
HW  OW  HW  HW  OW  HW  HW  OW  HW  HW  OW  HW  HW  OW  HW  HW  OW  HW  HW  OW  
HW  HW  OW  HW  HW  OW  HW  HW  OW  HW  HW  OW  HW  HW  OW  HW  HW  OW  HW  HW  
OW  HW  HW  OW  HW  HW  OW  HW  HW  OW  HW  HW  OW  HW  HW  OW  HW  HW  OW  HW  
HW  OW  HW  HW  OW  HW  HW  OW  HW  HW  OW  HW  HW  OW  HW  HW  OW  HW  HW  OW  
HW  HW  OW  HW  HW  OW  HW  HW  OW  HW  HW  OW  HW  HW  OW  HW  HW  OW  HW  HW  
OW  HW  HW  OW  HW  HW  OW  HW  HW  OW  HW  HW  OW  HW  HW  OW  HW  HW  OW  HW  
HW  OW  HW  HW  OW  HW  HW  OW  HW  HW  OW  HW  HW  OW  HW  HW  OW  HW  HW  OW  
HW  HW  OW  HW  HW  OW  HW  HW  OW  HW  HW  OW  HW  HW  OW  HW  HW  OW  HW  HW  
OW  HW  HW  OW  HW  HW  OW  HW  HW  OW  HW  HW  OW  HW  HW  OW  HW  HW  OW  HW  
HW  OW  HW  HW  OW  HW  HW  OW  HW  HW  OW  HW  HW  OW  HW  HW  OW  HW  HW  OW  
HW  HW  OW  HW  HW  OW  HW  HW  OW  HW  HW  OW  HW  HW  OW  HW  HW  OW  HW  HW  
OW  HW  HW  OW  HW  HW  OW  HW  HW  OW  HW  HW  OW  HW  HW  OW  HW  HW  OW  HW  
HW  OW  HW  HW  OW  HW  HW  OW  HW  HW  OW  HW  HW  OW  HW  HW  OW  HW  HW  OW  
HW  HW  OW  HW  HW  OW  HW  HW  OW  HW  HW  OW  HW  HW  OW  HW  HW  OW  HW  HW  
OW  HW  HW  OW  HW  HW  OW  HW  HW  OW  HW  HW  OW  HW  HW  OW  HW  HW  OW  HW  
HW  OW  HW  HW  OW  HW  HW  OW  HW  HW  OW  HW  HW  OW  HW  HW  OW  HW  HW  OW  
HW  HW  OW  HW  HW  OW  HW  HW  OW  HW  HW  OW  HW  HW  OW  HW  HW  OW  HW  HW  
OW  HW  HW  OW  HW  HW  OW  HW  HW  OW  HW  HW  
%FLAG TREE_CHAIN_CLASSIFICATION                                                 
%FORMAT(20a4)                                                                   
BLA BLA BLA BLA BLA BLA BLA BLA BLA BLA BLA BLA BLA BLA BLA BLA BLA BLA BLA BLA 
BLA BLA BLA BLA BLA BLA BLA BLA BLA BLA BLA BLA BLA BLA BLA BLA BLA BLA BLA BLA 
BLA BLA BLA BLA BLA BLA BLA BLA BLA BLA BLA BLA BLA BLA BLA BLA BLA BLA BLA BLA 
BLA BLA BLA BLA BLA BLA BLA BLA BLA BLA BLA BLA BLA BLA BLA BLA BLA BLA BLA BLA 
BLA BLA BLA BLA BLA BLA BLA BLA BLA BLA BLA BLA BLA BLA BLA BLA BLA BLA BLA BLA 
BLA BLA BLA BLA BLA BLA BLA BLA BLA BLA BLA BLA BLA BLA BLA BLA BLA BLA BLA BLA 
BLA BLA BLA BLA BLA BLA BLA BLA BLA BLA BLA BLA BLA BLA BLA BLA BLA BLA BLA BLA 
BLA BLA BLA BLA BLA BLA BLA BLA BLA BLA BLA BLA BLA BLA BLA BLA BLA BLA BLA BLA 
BLA BLA BLA BLA BLA BLA BLA BLA BLA BLA BLA BLA BLA BLA BLA BLA BLA BLA BLA BLA 
BLA BLA BLA BLA BLA BLA BLA BLA BLA BLA BLA BLA BLA BLA BLA BLA BLA BLA BLA BLA 
BLA BLA BLA BLA BLA BLA BLA BLA BLA BLA BLA BLA BLA BLA BLA BLA BLA BLA BLA BLA 
BLA BLA BLA BLA BLA BLA BLA BLA BLA BLA BLA BLA BLA BLA BLA BLA BLA BLA BLA BLA 
BLA BLA BLA BLA BLA BLA BLA BLA BLA BLA BLA BLA BLA BLA BLA BLA BLA BLA BLA BLA 
BLA BLA BLA BLA BLA BLA BLA BLA BLA BLA BLA BLA BLA BLA BLA BLA BLA BLA BLA BLA 
BLA BLA BLA BLA BLA BLA BLA BLA BLA BLA BLA BLA BLA BLA BLA BLA BLA BLA BLA BLA 
BLA BLA BLA BLA BLA BLA BLA BLA BLA BLA BLA BLA BLA BLA BLA BLA BLA BLA BLA BLA 
BLA BLA BLA BLA BLA BLA BLA BLA BLA BLA BLA BLA BLA BLA BLA BLA BLA BLA BLA BLA 
BLA BLA BLA BLA BLA BLA BLA BLA BLA BLA BLA BLA BLA BLA BLA BLA BLA BLA BLA BLA 
BLA BLA BLA BLA BLA BLA BLA BLA BLA BLA BLA BLA BLA BLA BLA BLA BLA BLA BLA BLA 
BLA BLA BLA BLA BLA BLA BLA BLA BLA BLA BLA BLA BLA BLA BLA BLA BLA BLA BLA BLA 
BLA BLA BLA BLA BLA BLA BLA BLA BLA BLA BLA BLA BLA BLA BLA BLA BLA BLA BLA BLA 
BLA BLA BLA BLA BLA BLA BLA BLA BLA BLA BLA BLA BLA BLA BLA BLA BLA BLA BLA BLA 
BLA BLA BLA BLA BLA BLA BLA BLA BLA BLA BLA BLA BLA BLA BLA BLA BLA BLA BLA BLA 
BLA BLA BLA BLA BLA BLA BLA BLA BLA BLA BLA BLA BLA BLA BLA BLA BLA BLA BLA BLA 
BLA BLA BLA BLA BLA BLA BLA BLA BLA BLA BLA BLA BLA BLA BLA BLA BLA BLA BLA BLA 
BLA BLA BLA BLA BLA BLA BLA BLA BLA BLA BLA BLA BLA BLA BLA BLA BLA BLA BLA BLA 
BLA BLA BLA BLA BLA BLA BLA BLA BLA BLA BLA BLA BLA BLA BLA BLA BLA BLA BLA BLA 
BLA BLA BLA BLA BLA BLA BLA BLA BLA BLA BLA BLA BLA BLA BLA BLA BLA BLA BLA BLA 
BLA BLA BLA BLA BLA BLA BLA BLA BLA BLA BLA BLA BLA BLA BLA BLA BLA BLA BLA BLA 
BLA BLA BLA BLA BLA BLA BLA BLA BLA BLA BLA BLA BLA BLA BLA BLA BLA BLA BLA BLA 
BLA BLA BLA BLA BLA BLA BLA BLA BLA BLA BLA BLA BLA BLA BLA BLA BLA BLA BLA BLA 
BLA BLA BLA BLA BLA BLA BLA BLA BLA BLA BLA BLA BLA BLA BLA BLA BLA BLA BLA BLA 
BLA BLA BLA BLA BLA BLA BLA BLA BLA BLA BLA BLA BLA BLA BLA BLA BLA BLA BLA BLA 
BLA BLA BLA BLA BLA BLA BLA BLA BLA BLA BLA BLA BLA BLA BLA BLA BLA BLA BLA BLA 
BLA BLA BLA BLA BLA BLA BLA BLA BLA BLA BLA BLA BLA BLA BLA BLA BLA BLA BLA BLA 
BLA BLA BLA BLA BLA BLA BLA BLA BLA BLA BLA BLA BLA BLA BLA BLA BLA BLA BLA BLA 
BLA BLA BLA BLA BLA BLA BLA BLA BLA BLA BLA BLA BLA BLA BLA BLA BLA BLA BLA BLA 
BLA BLA BLA BLA BLA BLA BLA BLA BLA BLA BLA BLA BLA BLA BLA BLA BLA BLA BLA BLA 
BLA BLA BLA BLA BLA BLA BLA BLA BLA BLA BLA BLA BLA BLA BLA BLA BLA BLA BLA BLA 
BLA BLA BLA BLA BLA BLA BLA BLA BLA BLA BLA BLA BLA BLA BLA BLA BLA BLA BLA BLA 
BLA BLA BLA BLA BLA BLA BLA BLA BLA BLA BLA BLA BLA BLA BLA BLA BLA BLA BLA BLA 
BLA BLA BLA BLA BLA BLA BLA BLA BLA BLA BLA BLA BLA BLA BLA BLA BLA BLA BLA BLA 
BLA BLA BLA BLA BLA BLA BLA BLA BLA BLA BLA BLA BLA BLA BLA BLA BLA BLA BLA BLA 
BLA BLA BLA BLA BLA BLA BLA BLA BLA BLA BLA BLA BLA BLA BLA BLA BLA BLA BLA BLA 
BLA BLA BLA BLA BLA BLA BLA BLA BLA BLA BLA BLA BLA BLA BLA BLA BLA BLA BLA BLA 
BLA BLA BLA BLA BLA BLA BLA BLA BLA BLA BLA BLA BLA BLA BLA BLA BLA BLA BLA BLA 
BLA BLA BLA BLA BLA BLA BLA BLA BLA BLA BLA BLA BLA BLA BLA BLA BLA BLA BLA BLA 
BLA BLA BLA BLA BLA BLA BLA BLA BLA BLA BLA BLA BLA BLA BLA BLA BLA BLA BLA BLA 
BLA BLA BLA BLA BLA BLA BLA BLA BLA BLA BLA BLA BLA BLA BLA BLA BLA BLA BLA BLA 
BLA BLA BLA BLA BLA BLA BLA BLA BLA BLA BLA BLA BLA BLA BLA BLA BLA BLA BLA BLA 
BLA BLA BLA BLA BLA BLA BLA BLA BLA BLA BLA BLA BLA BLA BLA BLA BLA BLA BLA BLA 
BLA BLA BLA BLA BLA BLA BLA BLA BLA BLA BLA BLA BLA BLA BLA BLA BLA BLA BLA BLA 
BLA BLA BLA BLA BLA BLA BLA BLA BLA BLA BLA BLA BLA BLA BLA BLA BLA BLA BLA BLA 
BLA BLA BLA BLA BLA BLA BLA BLA BLA BLA BLA BLA BLA BLA BLA BLA BLA BLA BLA BLA 
BLA BLA BLA BLA BLA BLA BLA BLA BLA BLA BLA BLA BLA BLA BLA BLA BLA BLA BLA BLA 
BLA BLA BLA BLA BLA BLA BLA BLA BLA BLA BLA BLA BLA BLA BLA BLA BLA BLA BLA BLA 
BLA BLA BLA BLA BLA BLA BLA BLA BLA BLA BLA BLA BLA BLA BLA BLA BLA BLA BLA BLA 
BLA BLA BLA BLA BLA BLA BLA BLA BLA BLA BLA BLA BLA BLA BLA BLA BLA BLA BLA BLA 
BLA BLA BLA BLA BLA BLA BLA BLA BLA BLA BLA BLA BLA BLA BLA BLA BLA BLA BLA BLA 
BLA BLA BLA BLA BLA BLA BLA BLA BLA BLA BLA BLA BLA BLA BLA BLA BLA BLA BLA BLA 
BLA BLA BLA BLA BLA BLA BLA BLA BLA BLA BLA BLA 
%FLAG JOIN_ARRAY                                                                
%FORMAT(10I8)                                                                   
       0       0       0       0       0       0       0       0       0       0
       0       0       0       0       0       0       0       0       0       0
       0       0       0       0       0       0       0       0       0       0
       0       0       0       0       0       0       0       0       0       0
       0       0       0       0       0       0       0       0       0       0
       0       0       0       0       0       0       0       0       0       0
       0       0       0       0       0       0       0       0       0       0
       0       0       0       0       0       0       0       0       0       0
       0       0       0       0       0       0       0       0       0       0
       0       0       0       0       0       0       0       0       0       0
       0       0       0       0       0       0       0       0       0       0
       0       0       0       0       0       0       0       0       0       0
       0       0       0       0       0       0       0       0       0       0
       0       0       0       0       0       0       0       0       0       0
       0       0       0       0       0       0       0       0       0       0
       0       0       0       0       0       0       0       0       0       0
       0       0       0       0       0       0       0       0       0       0
       0       0       0       0       0       0       0       0       0       0
       0       0       0       0       0       0       0       0       0       0
       0       0       0       0       0       0       0       0       0       0
       0       0       0       0       0       0       0       0       0       0
       0       0       0       0       0       0       0       0       0       0
       0       0       0       0       0       0       0       0       0       0
       0       0       0       0       0       0       0       0       0       0
       0       0       0       0       0       0       0       0       0       0
       0       0       0       0       0       0       0       0       0       0
       0       0       0       0       0       0       0       0       0       0
       0       0       0       0       0       0       0       0       0       0
       0       0       0       0       0       0       0       0       0       0
       0       0       0       0       0       0       0       0       0       0
       0       0       0       0       0       0       0       0       0       0
       0       0       0       0       0       0       0       0       0       0
       0       0       0       0       0       0       0       0       0       0
       0       0       0       0       0       0       0       0       0       0
       0       0       0       0       0       0       0       0       0       0
       0       0       0       0       0       0       0       0       0       0
       0       0       0       0       0       0       0       0       0       0
       0       0       0       0       0       0       0       0       0       0
       0       0       0       0       0       0       0       0       0       0
       0       0       0       0       0       0       0       0       0       0
       0       0       0       0       0       0       0       0       0       0
       0       0       0       0       0       0       0       0       0       0
       0       0       0       0       0       0       0       0       0       0
       0       0       0       0       0       0       0       0       0       0
       0       0       0       0       0       0       0       0       0       0
       0       0       0       0       0       0       0       0       0       0
       0       0       0       0       0       0       0       0       0       0
       0       0       0       0       0       0       0       0       0       0
       0       0       0       0       0       0       0       0       0       0
       0       0       0       0       0       0       0       0       0       0
       0       0       0       0       0       0       0       0       0       0
       0       0       0       0       0       0       0       0       0       0
       0       0       0       0       0       0       0       0       0       0
       0       0       0       0       0       0       0       0       0       0
       0       0       0       0       0       0       0       0       0       0
       0       0       0       0       0       0       0       0       0       0
       0       0       0       0       0       0       0       0       0       0
       0       0       0       0       0       0       0       0       0       0
       0       0       0       0       0       0       0       0       0       0
       0       0       0       0       0       0       0       0       0       0
       0       0       0       0       0       0       0       0       0       0
       0       0       0       0       0       0       0       0       0       0
       0       0       0       0       0       0       0       0       0       0
       0       0       0       0       0       0       0       0       0       0
       0       0       0       0       0       0       0       0       0       0
       0       0       0       0       0       0       0       0       0       0
       0       0       0       0       0       0       0       0       0       0
       0       0       0       0       0       0       0       0       0       0
       0       0       0       0       0       0       0       0       0       0
       0       0       0       0       0       0       0       0       0       0
       0       0       0       0       0       0       0       0       0       0
       0       0       0       0       0       0       0       0       0       0
       0       0       0       0       0       0       0       0       0       0
       0       0       0       0       0       0       0       0       0       0
       0       0       0       0       0       0       0       0       0       0
       0       0       0       0       0       0       0       0       0       0
       0       0       0       0       0       0       0       0       0       0
       0       0       0       0       0       0       0       0       0       0
       0       0       0       0       0       0       0       0       0       0
       0       0       0       0       0       0       0       0       0       0
       0       0       0       0       0       0       0       0       0       0
       0       0       0       0       0       0       0       0       0       0
       0       0       0       0       0       0       0       0       0       0
       0       0       0       0       0       0       0       0       0       0
       0       0       0       0       0       0       0       0       0       0
       0       0       0       0       0       0       0       0       0       0
       0       0       0       0       0       0       0       0       0       0
       0       0       0       0       0       0       0       0       0       0
       0       0       0       0       0       0       0       0       0       0
       0       0       0       0       0       0       0       0       0       0
       0       0       0       0       0       0       0       0       0       0
       0       0       0       0       0       0       0       0       0       0
       0       0       0       0       0       0       0       0       0       0
       0       0       0       0       0       0       0       0       0       0
       0       0       0       0       0       0       0       0       0       0
       0       0       0       0       0       0       0       0       0       0
       0       0       0       0       0       0       0       0       0       0
       0       0       0       0       0       0       0       0       0       0
       0       0       0       0       0       0       0       0       0       0
       0       0       0       0       0       0       0       0       0       0
       0       0       0       0       0       0       0       0       0       0
       0       0       0       0       0       0       0       0       0       0
       0       0       0       0       0       0       0       0       0       0
       0       0       0       0       0       0       0       0       0       0
       0       0       0       0       0       0       0       0       0       0
       0       0       0       0       0       0       0       0       0       0
       0       0       0       0       0       0       0       0       0       0
       0       0       0       0       0       0       0       0       0       0
       0       0       0       0       0       0       0       0       0       0
       0       0       0       0       0       0       0       0       0       0
       0       0       0       0       0       0       0       0       0       0
       0       0       0       0       0       0       0       0       0       0
       0       0       0       0       0       0       0       0       0       0
       0       0       0       0       0       0       0       0       0       0
       0       0       0       0       0       0       0       0       0       0
       0       0       0       0       0       0       0       0       0       0
       0       0       0       0       0       0       0       0       0       0
       0       0       0       0       0       0       0       0       0       0
       0       0       0       0       0       0       0       0       0       0
       0       0       0       0       0       0       0       0       0       0
       0       0       0       0       0       0       0       0       0       0
       0       0
%FLAG IROTAT                                                                    
%FORMAT(10I8)                                                                   
       0       0       0       0       0       0       0       0       0       0
       0       0       0       0       0       0       0       0       0       0
       0       0       0       0       0       0       0       0       0       0
       0       0       0       0       0       0       0       0       0       0
       0       0       0       0       0       0       0       0       0       0
       0       0       0       0       0       0       0       0       0       0
       0       0       0       0       0       0       0       0       0       0
       0       0       0       0       0       0       0       0       0       0
       0       0       0       0       0       0       0       0       0       0
       0       0       0       0       0       0       0       0       0       0
       0       0       0       0       0       0       0       0       0       0
       0       0       0       0       0       0       0       0       0       0
       0       0       0       0       0       0       0       0       0       0
       0       0       0       0       0       0       0       0       0       0
       0       0       0       0       0       0       0       0       0       0
       0       0       0       0       0       0       0       0       0       0
       0       0       0       0       0       0       0       0       0       0
       0       0       0       0       0       0       0       0       0       0
       0       0       0       0       0       0       0       0       0       0
       0       0       0       0       0       0       0       0       0       0
       0       0       0       0       0       0       0       0       0       0
       0       0       0       0       0       0       0       0       0       0
       0       0       0       0       0       0       0       0       0       0
       0       0       0       0       0       0       0       0       0       0
       0       0       0       0       0       0       0       0       0       0
       0       0       0       0       0       0       0       0       0       0
       0       0       0       0       0       0       0       0       0       0
       0       0       0       0       0       0       0       0       0       0
       0       0       0       0       0       0       0       0       0       0
       0       0       0       0       0       0       0       0       0       0
       0       0       0       0       0       0       0       0       0       0
       0       0       0       0       0       0       0       0       0       0
       0       0       0       0       0       0       0       0       0       0
       0       0       0       0       0       0       0       0       0       0
       0       0       0       0       0       0       0       0       0       0
       0       0       0       0       0       0       0       0       0       0
       0       0       0       0       0       0       0       0       0       0
       0       0       0       0       0       0       0       0       0       0
       0       0       0       0       0       0       0       0       0       0
       0       0       0       0       0       0       0       0       0       0
       0       0       0       0       0       0       0       0       0       0
       0       0       0       0       0       0       0       0       0       0
       0       0       0       0       0       0       0       0       0       0
       0       0       0       0       0       0       0       0       0       0
       0       0       0       0       0       0       0       0       0       0
       0       0       0       0       0       0       0       0       0       0
       0       0       0       0       0       0       0       0       0       0
       0       0       0       0       0       0       0       0       0       0
       0       0       0       0       0       0       0       0       0       0
       0       0       0       0       0       0       0       0       0       0
       0       0       0       0       0       0       0       0       0       0
       0       0       0       0       0       0       0       0       0       0
       0       0       0       0       0       0       0       0       0       0
       0       0       0       0       0       0       0       0       0       0
       0       0       0       0       0       0       0       0       0       0
       0       0       0       0       0       0       0       0       0       0
       0       0       0       0       0       0       0       0       0       0
       0       0       0       0       0       0       0       0       0       0
       0       0       0       0       0       0       0       0       0       0
       0       0       0       0       0       0       0       0       0       0
       0       0       0       0       0       0       0       0       0       0
       0       0       0       0       0       0       0       0       0       0
       0       0       0       0       0       0       0       0       0       0
       0       0       0       0       0       0       0       0       0       0
       0       0       0       0       0       0       0       0       0       0
       0       0       0       0       0       0       0       0       0       0
       0       0       0       0       0       0       0       0       0       0
       0       0       0       0       0       0       0       0       0       0
       0       0       0       0       0       0       0       0       0       0
       0       0       0       0       0       0       0       0       0       0
       0       0       0       0       0       0       0       0       0       0
       0       0       0       0       0       0       0       0       0       0
       0       0       0       0       0       0       0       0       0       0
       0       0       0       0       0       0       0       0       0       0
       0       0       0       0       0       0       0       0       0       0
       0       0       0       0       0       0       0       0       0       0
       0       0       0       0       0       0       0       0       0       0
       0       0       0       0       0       0       0       0       0       0
       0       0       0       0       0       0       0       0       0       0
       0       0       0       0       0       0       0       0       0       0
       0       0       0       0       0       0       0       0       0       0
       0       0       0       0       0       0       0       0       0       0
       0       0       0       0       0       0       0       0       0       0
       0       0       0       0       0       0       0       0       0       0
       0       0       0       0       0       0       0       0       0       0
       0       0       0       0       0       0       0       0       0       0
       0       0       0       0       0       0       0       0       0       0
       0       0       0       0       0       0       0       0       0       0
       0       0       0       0       0       0       0       0       0       0
       0       0       0       0       0       0       0       0       0       0
       0       0       0       0       0       0       0       0       0       0
       0       0       0       0       0       0       0       0       0       0
       0       0       0       0       0       0       0       0       0       0
       0       0       0       0       0       0       0       0       0       0
       0       0       0       0       0       0       0       0       0       0
       0       0       0       0       0       0       0       0       0       0
       0       0       0       0       0       0       0       0       0       0
       0       0       0       0       0       0       0       0       0       0
       0       0       0       0       0       0       0       0       0       0
       0       0       0       0       0       0       0       0       0       0
       0       0       0       0       0       0       0       0       0       0
       0       0       0       0       0       0       0       0       0       0
       0       0       0       0       0       0       0       0       0       0
       0       0       0       0       0       0       0       0       0       0
       0       0       0       0       0       0       0       0       0       0
       0       0       0       0       0       0       0       0       0       0
       0       0       0       0       0       0       0       0       0       0
       0       0       0       0       0       0       0       0       0       0
       0       0       0       0       0       0       0       0       0       0
       0       0       0       0       0       0       0       0       0       0
       0       0       0       0       0       0       0       0       0       0
       0       0       0       0       0       0       0       0       0       0
       0       0       0       0       0       0       0       0       0       0
       0       0       0       0       0       0       0       0       0       0
       0       0       0       0       0       0       0       0       0       0
       0       0       0       0       0       0       0       0       0       0
       0       0       0       0       0       0       0       0       0       0
       0       0       0       0       0       0       0       0       0       0
       0       0       0       0       0       0       0       0       0       0
       0       0       0       0       0       0       0       0       0       0
       0       0       0       0       0       0       0       0       0       0
       0       0
%FLAG RADIUS_SET                                                                
%FORMAT(1a80)                                                                   
modified Bondi radii (mbondi)                                                   
%FLAG RADII                                                                     
%FORMAT(5E16.8)                                                                 
  1.70000000E+00  1.30000000E+00  1.30000000E+00  1.30000000E+00  1.70000000E+00
  1.30000000E+00  1.30000000E+00  1.30000000E+00  1.70000000E+00  1.50000000E+00
  1.50000000E+00  1.50000000E+00  1.50000000E+00  1.70000000E+00  1.70000000E+00
  1.70000000E+00  1.70000000E+00  1.30000000E+00  1.70000000E+00  1.50000000E+00
  1.70000000E+00  1.30000000E+00  1.70000000E+00  1.30000000E+00  1.70000000E+00
  1.30000000E+00  1.55000000E+00  1.70000000E+00  1.30000000E+00  1.30000000E+00
  1.70000000E+00  1.30000000E+00  1.30000000E+00  1.30000000E+00  1.70000000E+00
  1.30000000E+00  1.30000000E+00  1.70000000E+00  1.30000000E+00  1.30000000E+00
  1.30000000E+00  8.00000000E-01  1.50000000E+00  8.00000000E-01  8.00000000E-01
  1.50000000E+00  8.00000000E-01  8.00000000E-01  1.50000000E+00  8.00000000E-01
  8.00000000E-01  1.50000000E+00  8.00000000E-01  8.00000000E-01  1.50000000E+00
  8.00000000E-01  8.00000000E-01  1.50000000E+00  8.00000000E-01  8.00000000E-01
  1.50000000E+00  8.00000000E-01  8.00000000E-01  1.50000000E+00  8.00000000E-01
  8.00000000E-01  1.50000000E+00  8.00000000E-01  8.00000000E-01  1.50000000E+00
  8.00000000E-01  8.00000000E-01  1.50000000E+00  8.00000000E-01  8.00000000E-01
  1.50000000E+00  8.00000000E-01  8.00000000E-01  1.50000000E+00  8.00000000E-01
  8.00000000E-01  1.50000000E+00  8.00000000E-01  8.00000000E-01  1.50000000E+00
  8.00000000E-01  8.00000000E-01  1.50000000E+00  8.00000000E-01  8.00000000E-01
  1.50000000E+00  8.00000000E-01  8.00000000E-01  1.50000000E+00  8.00000000E-01
  8.00000000E-01  1.50000000E+00  8.00000000E-01  8.00000000E-01  1.50000000E+00
  8.00000000E-01  8.00000000E-01  1.50000000E+00  8.00000000E-01  8.00000000E-01
  1.50000000E+00  8.00000000E-01  8.00000000E-01  1.50000000E+00  8.00000000E-01
  8.00000000E-01  1.50000000E+00  8.00000000E-01  8.00000000E-01  1.50000000E+00
  8.00000000E-01  8.00000000E-01  1.50000000E+00  8.00000000E-01  8.00000000E-01
  1.50000000E+00  8.00000000E-01  8.00000000E-01  1.50000000E+00  8.00000000E-01
  8.00000000E-01  1.50000000E+00  8.00000000E-01  8.00000000E-01  1.50000000E+00
  8.00000000E-01  8.00000000E-01  1.50000000E+00  8.00000000E-01  8.00000000E-01
  1.50000000E+00  8.00000000E-01  8.00000000E-01  1.50000000E+00  8.00000000E-01
  8.00000000E-01  1.50000000E+00  8.00000000E-01  8.00000000E-01  1.50000000E+00
  8.00000000E-01  8.00000000E-01  1.50000000E+00  8.00000000E-01  8.00000000E-01
  1.50000000E+00  8.00000000E-01  8.00000000E-01  1.50000000E+00  8.00000000E-01
  8.00000000E-01  1.50000000E+00  8.00000000E-01  8.00000000E-01  1.50000000E+00
  8.00000000E-01  8.00000000E-01  1.50000000E+00  8.00000000E-01  8.00000000E-01
  1.50000000E+00  8.00000000E-01  8.00000000E-01  1.50000000E+00  8.00000000E-01
  8.00000000E-01  1.50000000E+00  8.00000000E-01  8.00000000E-01  1.50000000E+00
  8.00000000E-01  8.00000000E-01  1.50000000E+00  8.00000000E-01  8.00000000E-01
  1.50000000E+00  8.00000000E-01  8.00000000E-01  1.50000000E+00  8.00000000E-01
  8.00000000E-01  1.50000000E+00  8.00000000E-01  8.00000000E-01  1.50000000E+00
  8.00000000E-01  8.00000000E-01  1.50000000E+00  8.00000000E-01  8.00000000E-01
  1.50000000E+00  8.00000000E-01  8.00000000E-01  1.50000000E+00  8.00000000E-01
  8.00000000E-01  1.50000000E+00  8.00000000E-01  8.00000000E-01  1.50000000E+00
  8.00000000E-01  8.00000000E-01  1.50000000E+00  8.00000000E-01  8.00000000E-01
  1.50000000E+00  8.00000000E-01  8.00000000E-01  1.50000000E+00  8.00000000E-01
  8.00000000E-01  1.50000000E+00  8.00000000E-01  8.00000000E-01  1.50000000E+00
  8.00000000E-01  8.00000000E-01  1.50000000E+00  8.00000000E-01  8.00000000E-01
  1.50000000E+00  8.00000000E-01  8.00000000E-01  1.50000000E+00  8.00000000E-01
  8.00000000E-01  1.50000000E+00  8.00000000E-01  8.00000000E-01  1.50000000E+00
  8.00000000E-01  8.00000000E-01  1.50000000E+00  8.00000000E-01  8.00000000E-01
  1.50000000E+00  8.00000000E-01  8.00000000E-01  1.50000000E+00  8.00000000E-01
  8.00000000E-01  1.50000000E+00  8.00000000E-01  8.00000000E-01  1.50000000E+00
  8.00000000E-01  8.00000000E-01  1.50000000E+00  8.00000000E-01  8.00000000E-01
  1.50000000E+00  8.00000000E-01  8.00000000E-01  1.50000000E+00  8.00000000E-01
  8.00000000E-01  1.50000000E+00  8.00000000E-01  8.00000000E-01  1.50000000E+00
  8.00000000E-01  8.00000000E-01  1.50000000E+00  8.00000000E-01  8.00000000E-01
  1.50000000E+00  8.00000000E-01  8.00000000E-01  1.50000000E+00  8.00000000E-01
  8.00000000E-01  1.50000000E+00  8.00000000E-01  8.00000000E-01  1.50000000E+00
  8.00000000E-01  8.00000000E-01  1.50000000E+00  8.00000000E-01  8.00000000E-01
  1.50000000E+00  8.00000000E-01  8.00000000E-01  1.50000000E+00  8.00000000E-01
  8.00000000E-01  1.50000000E+00  8.00000000E-01  8.00000000E-01  1.50000000E+00
  8.00000000E-01  8.00000000E-01  1.50000000E+00  8.00000000E-01  8.00000000E-01
  1.50000000E+00  8.00000000E-01  8.00000000E-01  1.50000000E+00  8.00000000E-01
  8.00000000E-01  1.50000000E+00  8.00000000E-01  8.00000000E-01  1.50000000E+00
  8.00000000E-01  8.00000000E-01  1.50000000E+00  8.00000000E-01  8.00000000E-01
  1.50000000E+00  8.00000000E-01  8.00000000E-01  1.50000000E+00  8.00000000E-01
  8.00000000E-01  1.50000000E+00  8.00000000E-01  8.00000000E-01  1.50000000E+00
  8.00000000E-01  8.00000000E-01  1.50000000E+00  8.00000000E-01  8.00000000E-01
  1.50000000E+00  8.00000000E-01  8.00000000E-01  1.50000000E+00  8.00000000E-01
  8.00000000E-01  1.50000000E+00  8.00000000E-01  8.00000000E-01  1.50000000E+00
  8.00000000E-01  8.00000000E-01  1.50000000E+00  8.00000000E-01  8.00000000E-01
  1.50000000E+00  8.00000000E-01  8.00000000E-01  1.50000000E+00  8.00000000E-01
  8.00000000E-01  1.50000000E+00  8.00000000E-01  8.00000000E-01  1.50000000E+00
  8.00000000E-01  8.00000000E-01  1.50000000E+00  8.00000000E-01  8.00000000E-01
  1.50000000E+00  8.00000000E-01  8.00000000E-01  1.50000000E+00  8.00000000E-01
  8.00000000E-01  1.50000000E+00  8.00000000E-01  8.00000000E-01  1.50000000E+00
  8.00000000E-01  8.00000000E-01  1.50000000E+00  8.00000000E-01  8.00000000E-01
  1.50000000E+00  8.00000000E-01  8.00000000E-01  1.50000000E+00  8.00000000E-01
  8.00000000E-01  1.50000000E+00  8.00000000E-01  8.00000000E-01  1.50000000E+00
  8.00000000E-01  8.00000000E-01  1.50000000E+00  8.00000000E-01  8.00000000E-01
  1.50000000E+00  8.00000000E-01  8.00000000E-01  1.50000000E+00  8.00000000E-01
  8.00000000E-01  1.50000000E+00  8.00000000E-01  8.00000000E-01  1.50000000E+00
  8.00000000E-01  8.00000000E-01  1.50000000E+00  8.00000000E-01  8.00000000E-01
  1.50000000E+00  8.00000000E-01  8.00000000E-01  1.50000000E+00  8.00000000E-01
  8.00000000E-01  1.50000000E+00  8.00000000E-01  8.00000000E-01  1.50000000E+00
  8.00000000E-01  8.00000000E-01  1.50000000E+00  8.00000000E-01  8.00000000E-01
  1.50000000E+00  8.00000000E-01  8.00000000E-01  1.50000000E+00  8.00000000E-01
  8.00000000E-01  1.50000000E+00  8.00000000E-01  8.00000000E-01  1.50000000E+00
  8.00000000E-01  8.00000000E-01  1.50000000E+00  8.00000000E-01  8.00000000E-01
  1.50000000E+00  8.00000000E-01  8.00000000E-01  1.50000000E+00  8.00000000E-01
  8.00000000E-01  1.50000000E+00  8.00000000E-01  8.00000000E-01  1.50000000E+00
  8.00000000E-01  8.00000000E-01  1.50000000E+00  8.00000000E-01  8.00000000E-01
  1.50000000E+00  8.00000000E-01  8.00000000E-01  1.50000000E+00  8.00000000E-01
  8.00000000E-01  1.50000000E+00  8.00000000E-01  8.00000000E-01  1.50000000E+00
  8.00000000E-01  8.00000000E-01  1.50000000E+00  8.00000000E-01  8.00000000E-01
  1.50000000E+00  8.00000000E-01  8.00000000E-01  1.50000000E+00  8.00000000E-01
  8.00000000E-01  1.50000000E+00  8.00000000E-01  8.00000000E-01  1.50000000E+00
  8.00000000E-01  8.00000000E-01  1.50000000E+00  8.00000000E-01  8.00000000E-01
  1.50000000E+00  8.00000000E-01  8.00000000E-01  1.50000000E+00  8.00000000E-01
  8.00000000E-01  1.50000000E+00  8.00000000E-01  8.00000000E-01  1.50000000E+00
  8.00000000E-01  8.00000000E-01  1.50000000E+00  8.00000000E-01  8.00000000E-01
  1.50000000E+00  8.00000000E-01  8.00000000E-01  1.50000000E+00  8.00000000E-01
  8.00000000E-01  1.50000000E+00  8.00000000E-01  8.00000000E-01  1.50000000E+00
  8.00000000E-01  8.00000000E-01  1.50000000E+00  8.00000000E-01  8.00000000E-01
  1.50000000E+00  8.00000000E-01  8.00000000E-01  1.50000000E+00  8.00000000E-01
  8.00000000E-01  1.50000000E+00  8.00000000E-01  8.00000000E-01  1.50000000E+00
  8.00000000E-01  8.00000000E-01  1.50000000E+00  8.00000000E-01  8.00000000E-01
  1.50000000E+00  8.00000000E-01  8.00000000E-01  1.50000000E+00  8.00000000E-01
  8.00000000E-01  1.50000000E+00  8.00000000E-01  8.00000000E-01  1.50000000E+00
  8.00000000E-01  8.00000000E-01  1.50000000E+00  8.00000000E-01  8.00000000E-01
  1.50000000E+00  8.00000000E-01  8.00000000E-01  1.50000000E+00  8.00000000E-01
  8.00000000E-01  1.50000000E+00  8.00000000E-01  8.00000000E-01  1.50000000E+00
  8.00000000E-01  8.00000000E-01  1.50000000E+00  8.00000000E-01  8.00000000E-01
  1.50000000E+00  8.00000000E-01  8.00000000E-01  1.50000000E+00  8.00000000E-01
  8.00000000E-01  1.50000000E+00  8.00000000E-01  8.00000000E-01  1.50000000E+00
  8.00000000E-01  8.00000000E-01  1.50000000E+00  8.00000000E-01  8.00000000E-01
  1.50000000E+00  8.00000000E-01  8.00000000E-01  1.50000000E+00  8.00000000E-01
  8.00000000E-01  1.50000000E+00  8.00000000E-01  8.00000000E-01  1.50000000E+00
  8.00000000E-01  8.00000000E-01  1.50000000E+00  8.00000000E-01  8.00000000E-01
  1.50000000E+00  8.00000000E-01  8.00000000E-01  1.50000000E+00  8.00000000E-01
  8.00000000E-01  1.50000000E+00  8.00000000E-01  8.00000000E-01  1.50000000E+00
  8.00000000E-01  8.00000000E-01  1.50000000E+00  8.00000000E-01  8.00000000E-01
  1.50000000E+00  8.00000000E-01  8.00000000E-01  1.50000000E+00  8.00000000E-01
  8.00000000E-01  1.50000000E+00  8.00000000E-01  8.00000000E-01  1.50000000E+00
  8.00000000E-01  8.00000000E-01  1.50000000E+00  8.00000000E-01  8.00000000E-01
  1.50000000E+00  8.00000000E-01  8.00000000E-01  1.50000000E+00  8.00000000E-01
  8.00000000E-01  1.50000000E+00  8.00000000E-01  8.00000000E-01  1.50000000E+00
  8.00000000E-01  8.00000000E-01  1.50000000E+00  8.00000000E-01  8.00000000E-01
  1.50000000E+00  8.00000000E-01  8.00000000E-01  1.50000000E+00  8.00000000E-01
  8.00000000E-01  1.50000000E+00  8.00000000E-01  8.00000000E-01  1.50000000E+00
  8.00000000E-01  8.00000000E-01  1.50000000E+00  8.00000000E-01  8.00000000E-01
  1.50000000E+00  8.00000000E-01  8.00000000E-01  1.50000000E+00  8.00000000E-01
  8.00000000E-01  1.50000000E+00  8.00000000E-01  8.00000000E-01  1.50000000E+00
  8.00000000E-01  8.00000000E-01  1.50000000E+00  8.00000000E-01  8.00000000E-01
  1.50000000E+00  8.00000000E-01  8.00000000E-01  1.50000000E+00  8.00000000E-01
  8.00000000E-01  1.50000000E+00  8.00000000E-01  8.00000000E-01  1.50000000E+00
  8.00000000E-01  8.00000000E-01  1.50000000E+00  8.00000000E-01  8.00000000E-01
  1.50000000E+00  8.00000000E-01  8.00000000E-01  1.50000000E+00  8.00000000E-01
  8.00000000E-01  1.50000000E+00  8.00000000E-01  8.00000000E-01  1.50000000E+00
  8.00000000E-01  8.00000000E-01  1.50000000E+00  8.00000000E-01  8.00000000E-01
  1.50000000E+00  8.00000000E-01  8.00000000E-01  1.50000000E+00  8.00000000E-01
  8.00000000E-01  1.50000000E+00  8.00000000E-01  8.00000000E-01  1.50000000E+00
  8.00000000E-01  8.00000000E-01  1.50000000E+00  8.00000000E-01  8.00000000E-01
  1.50000000E+00  8.00000000E-01  8.00000000E-01  1.50000000E+00  8.00000000E-01
  8.00000000E-01  1.50000000E+00  8.00000000E-01  8.00000000E-01  1.50000000E+00
  8.00000000E-01  8.00000000E-01  1.50000000E+00  8.00000000E-01  8.00000000E-01
  1.50000000E+00  8.00000000E-01  8.00000000E-01  1.50000000E+00  8.00000000E-01
  8.00000000E-01  1.50000000E+00  8.00000000E-01  8.00000000E-01  1.50000000E+00
  8.00000000E-01  8.00000000E-01  1.50000000E+00  8.00000000E-01  8.00000000E-01
  1.50000000E+00  8.00000000E-01  8.00000000E-01  1.50000000E+00  8.00000000E-01
  8.00000000E-01  1.50000000E+00  8.00000000E-01  8.00000000E-01  1.50000000E+00
  8.00000000E-01  8.00000000E-01  1.50000000E+00  8.00000000E-01  8.00000000E-01
  1.50000000E+00  8.00000000E-01  8.00000000E-01  1.50000000E+00  8.00000000E-01
  8.00000000E-01  1.50000000E+00  8.00000000E-01  8.00000000E-01  1.50000000E+00
  8.00000000E-01  8.00000000E-01  1.50000000E+00  8.00000000E-01  8.00000000E-01
  1.50000000E+00  8.00000000E-01  8.00000000E-01  1.50000000E+00  8.00000000E-01
  8.00000000E-01  1.50000000E+00  8.00000000E-01  8.00000000E-01  1.50000000E+00
  8.00000000E-01  8.00000000E-01  1.50000000E+00  8.00000000E-01  8.00000000E-01
  1.50000000E+00  8.00000000E-01  8.00000000E-01  1.50000000E+00  8.00000000E-01
  8.00000000E-01  1.50000000E+00  8.00000000E-01  8.00000000E-01  1.50000000E+00
  8.00000000E-01  8.00000000E-01  1.50000000E+00  8.00000000E-01  8.00000000E-01
  1.50000000E+00  8.00000000E-01  8.00000000E-01  1.50000000E+00  8.00000000E-01
  8.00000000E-01  1.50000000E+00  8.00000000E-01  8.00000000E-01  1.50000000E+00
  8.00000000E-01  8.00000000E-01  1.50000000E+00  8.00000000E-01  8.00000000E-01
  1.50000000E+00  8.00000000E-01  8.00000000E-01  1.50000000E+00  8.00000000E-01
  8.00000000E-01  1.50000000E+00  8.00000000E-01  8.00000000E-01  1.50000000E+00
  8.00000000E-01  8.00000000E-01  1.50000000E+00  8.00000000E-01  8.00000000E-01
  1.50000000E+00  8.00000000E-01  8.00000000E-01  1.50000000E+00  8.00000000E-01
  8.00000000E-01  1.50000000E+00  8.00000000E-01  8.00000000E-01  1.50000000E+00
  8.00000000E-01  8.00000000E-01  1.50000000E+00  8.00000000E-01  8.00000000E-01
  1.50000000E+00  8.00000000E-01  8.00000000E-01  1.50000000E+00  8.00000000E-01
  8.00000000E-01  1.50000000E+00  8.00000000E-01  8.00000000E-01  1.50000000E+00
  8.00000000E-01  8.00000000E-01  1.50000000E+00  8.00000000E-01  8.00000000E-01
  1.50000000E+00  8.00000000E-01  8.00000000E-01  1.50000000E+00  8.00000000E-01
  8.00000000E-01  1.50000000E+00  8.00000000E-01  8.00000000E-01  1.50000000E+00
  8.00000000E-01  8.00000000E-01  1.50000000E+00  8.00000000E-01  8.00000000E-01
  1.50000000E+00  8.00000000E-01  8.00000000E-01  1.50000000E+00  8.00000000E-01
  8.00000000E-01  1.50000000E+00  8.00000000E-01  8.00000000E-01  1.50000000E+00
  8.00000000E-01  8.00000000E-01  1.50000000E+00  8.00000000E-01  8.00000000E-01
  1.50000000E+00  8.00000000E-01  8.00000000E-01  1.50000000E+00  8.00000000E-01
  8.00000000E-01  1.50000000E+00  8.00000000E-01  8.00000000E-01  1.50000000E+00
  8.00000000E-01  8.00000000E-01  1.50000000E+00  8.00000000E-01  8.00000000E-01
  1.50000000E+00  8.00000000E-01  8.00000000E-01  1.50000000E+00  8.00000000E-01
  8.00000000E-01  1.50000000E+00  8.00000000E-01  8.00000000E-01  1.50000000E+00
  8.00000000E-01  8.00000000E-01  1.50000000E+00  8.00000000E-01  8.00000000E-01
  1.50000000E+00  8.00000000E-01  8.00000000E-01  1.50000000E+00  8.00000000E-01
  8.00000000E-01  1.50000000E+00  8.00000000E-01  8.00000000E-01  1.50000000E+00
  8.00000000E-01  8.00000000E-01  1.50000000E+00  8.00000000E-01  8.00000000E-01
  1.50000000E+00  8.00000000E-01  8.00000000E-01  1.50000000E+00  8.00000000E-01
  8.00000000E-01  1.50000000E+00  8.00000000E-01  8.00000000E-01  1.50000000E+00
  8.00000000E-01  8.00000000E-01  1.50000000E+00  8.00000000E-01  8.00000000E-01
  1.50000000E+00  8.00000000E-01  8.00000000E-01  1.50000000E+00  8.00000000E-01
  8.00000000E-01  1.50000000E+00  8.00000000E-01  8.00000000E-01  1.50000000E+00
  8.00000000E-01  8.00000000E-01  1.50000000E+00  8.00000000E-01  8.00000000E-01
  1.50000000E+00  8.00000000E-01  8.00000000E-01  1.50000000E+00  8.00000000E-01
  8.00000000E-01  1.50000000E+00  8.00000000E-01  8.00000000E-01  1.50000000E+00
  8.00000000E-01  8.00000000E-01  1.50000000E+00  8.00000000E-01  8.00000000E-01
  1.50000000E+00  8.00000000E-01  8.00000000E-01  1.50000000E+00  8.00000000E-01
  8.00000000E-01  1.50000000E+00  8.00000000E-01  8.00000000E-01  1.50000000E+00
  8.00000000E-01  8.00000000E-01  1.50000000E+00  8.00000000E-01  8.00000000E-01
  1.50000000E+00  8.00000000E-01  8.00000000E-01  1.50000000E+00  8.00000000E-01
  8.00000000E-01  1.50000000E+00  8.00000000E-01  8.00000000E-01  1.50000000E+00
  8.00000000E-01  8.00000000E-01  1.50000000E+00  8.00000000E-01  8.00000000E-01
  1.50000000E+00  8.00000000E-01  8.00000000E-01  1.50000000E+00  8.00000000E-01
  8.00000000E-01  1.50000000E+00  8.00000000E-01  8.00000000E-01  1.50000000E+00
  8.00000000E-01  8.00000000E-01  1.50000000E+00  8.00000000E-01  8.00000000E-01
  1.50000000E+00  8.00000000E-01  8.00000000E-01  1.50000000E+00  8.00000000E-01
  8.00000000E-01  1.50000000E+00  8.00000000E-01  8.00000000E-01  1.50000000E+00
  8.00000000E-01  8.00000000E-01  1.50000000E+00  8.00000000E-01  8.00000000E-01
  1.50000000E+00  8.00000000E-01  8.00000000E-01  1.50000000E+00  8.00000000E-01
  8.00000000E-01  1.50000000E+00  8.00000000E-01  8.00000000E-01  1.50000000E+00
  8.00000000E-01  8.00000000E-01  1.50000000E+00  8.00000000E-01  8.00000000E-01
  1.50000000E+00  8.00000000E-01  8.00000000E-01  1.50000000E+00  8.00000000E-01
  8.00000000E-01  1.50000000E+00  8.00000000E-01  8.00000000E-01  1.50000000E+00
  8.00000000E-01  8.00000000E-01  1.50000000E+00  8.00000000E-01  8.00000000E-01
  1.50000000E+00  8.00000000E-01  8.00000000E-01  1.50000000E+00  8.00000000E-01
  8.00000000E-01  1.50000000E+00  8.00000000E-01  8.00000000E-01  1.50000000E+00
  8.00000000E-01  8.00000000E-01  1.50000000E+00  8.00000000E-01  8.00000000E-01
  1.50000000E+00  8.00000000E-01  8.00000000E-01  1.50000000E+00  8.00000000E-01
  8.00000000E-01  1.50000000E+00  8.00000000E-01  8.00000000E-01  1.50000000E+00
  8.00000000E-01  8.00000000E-01  1.50000000E+00  8.00000000E-01  8.00000000E-01
  1.50000000E+00  8.00000000E-01  8.00000000E-01  1.50000000E+00  8.00000000E-01
  8.00000000E-01  1.50000000E+00  8.00000000E-01  8.00000000E-01  1.50000000E+00
  8.00000000E-01  8.00000000E-01  1.50000000E+00  8.00000000E-01  8.00000000E-01
  1.50000000E+00  8.00000000E-01  8.00000000E-01  1.50000000E+00  8.00000000E-01
  8.00000000E-01  1.50000000E+00  8.00000000E-01  8.00000000E-01  1.50000000E+00
  8.00000000E-01  8.00000000E-01  1.50000000E+00  8.00000000E-01  8.00000000E-01
  1.50000000E+00  8.00000000E-01  8.00000000E-01  1.50000000E+00  8.00000000E-01
  8.00000000E-01  1.50000000E+00  8.00000000E-01  8.00000000E-01  1.50000000E+00
  8.00000000E-01  8.00000000E-01  1.50000000E+00  8.00000000E-01  8.00000000E-01
  1.50000000E+00  8.00000000E-01  8.00000000E-01  1.50000000E+00  8.00000000E-01
  8.00000000E-01  1.50000000E+00  8.00000000E-01  8.00000000E-01  1.50000000E+00
  8.00000000E-01  8.00000000E-01  1.50000000E+00  8.00000000E-01  8.00000000E-01
  1.50000000E+00  8.00000000E-01  8.00000000E-01  1.50000000E+00  8.00000000E-01
  8.00000000E-01  1.50000000E+00  8.00000000E-01  8.00000000E-01  1.50000000E+00
  8.00000000E-01  8.00000000E-01  1.50000000E+00  8.00000000E-01  8.00000000E-01
  1.50000000E+00  8.00000000E-01  8.00000000E-01  1.50000000E+00  8.00000000E-01
  8.00000000E-01  1.50000000E+00  8.00000000E-01  8.00000000E-01  1.50000000E+00
  8.00000000E-01  8.00000000E-01  1.50000000E+00  8.00000000E-01  8.00000000E-01
  1.50000000E+00  8.00000000E-01  8.00000000E-01  1.50000000E+00  8.00000000E-01
  8.00000000E-01  1.50000000E+00  8.00000000E-01  8.00000000E-01  1.50000000E+00
  8.00000000E-01  8.00000000E-01  1.50000000E+00  8.00000000E-01  8.00000000E-01
  1.50000000E+00  8.00000000E-01  8.00000000E-01  1.50000000E+00  8.00000000E-01
  8.00000000E-01  1.50000000E+00  8.00000000E-01  8.00000000E-01  1.50000000E+00
  8.00000000E-01  8.00000000E-01
%FLAG SCREEN                                                                    
%FORMAT(5E16.8)                                                                 
  7.20000000E-01  8.50000000E-01  8.50000000E-01  8.50000000E-01  7.20000000E-01
  8.50000000E-01  8.50000000E-01  8.50000000E-01  7.20000000E-01  8.50000000E-01
  8.50000000E-01  8.50000000E-01  8.50000000E-01  7.20000000E-01  7.20000000E-01
  7.20000000E-01  7.20000000E-01  8.50000000E-01  7.20000000E-01  8.50000000E-01
  7.20000000E-01  8.50000000E-01  7.20000000E-01  8.50000000E-01  7.20000000E-01
  8.50000000E-01  7.90000000E-01  7.20000000E-01  8.50000000E-01  8.50000000E-01
  7.20000000E-01  8.50000000E-01  8.50000000E-01  8.50000000E-01  7.20000000E-01
  8.50000000E-01  8.50000000E-01  7.20000000E-01  8.50000000E-01  8.50000000E-01
  8.50000000E-01  8.50000000E-01  8.50000000E-01  8.50000000E-01  8.50000000E-01
  8.50000000E-01  8.50000000E-01  8.50000000E-01  8.50000000E-01  8.50000000E-01
  8.50000000E-01  8.50000000E-01  8.50000000E-01  8.50000000E-01  8.50000000E-01
  8.50000000E-01  8.50000000E-01  8.50000000E-01  8.50000000E-01  8.50000000E-01
  8.50000000E-01  8.50000000E-01  8.50000000E-01  8.50000000E-01  8.50000000E-01
  8.50000000E-01  8.50000000E-01  8.50000000E-01  8.50000000E-01  8.50000000E-01
  8.50000000E-01  8.50000000E-01  8.50000000E-01  8.50000000E-01  8.50000000E-01
  8.50000000E-01  8.50000000E-01  8.50000000E-01  8.50000000E-01  8.50000000E-01
  8.50000000E-01  8.50000000E-01  8.50000000E-01  8.50000000E-01  8.50000000E-01
  8.50000000E-01  8.50000000E-01  8.50000000E-01  8.50000000E-01  8.50000000E-01
  8.50000000E-01  8.50000000E-01  8.50000000E-01  8.50000000E-01  8.50000000E-01
  8.50000000E-01  8.50000000E-01  8.50000000E-01  8.50000000E-01  8.50000000E-01
  8.50000000E-01  8.50000000E-01  8.50000000E-01  8.50000000E-01  8.50000000E-01
  8.50000000E-01  8.50000000E-01  8.50000000E-01  8.50000000E-01  8.50000000E-01
  8.50000000E-01  8.50000000E-01  8.50000000E-01  8.50000000E-01  8.50000000E-01
  8.50000000E-01  8.50000000E-01  8.50000000E-01  8.50000000E-01  8.50000000E-01
  8.50000000E-01  8.50000000E-01  8.50000000E-01  8.50000000E-01  8.50000000E-01
  8.50000000E-01  8.50000000E-01  8.50000000E-01  8.50000000E-01  8.50000000E-01
  8.50000000E-01  8.50000000E-01  8.50000000E-01  8.50000000E-01  8.50000000E-01
  8.50000000E-01  8.50000000E-01  8.50000000E-01  8.50000000E-01  8.50000000E-01
  8.50000000E-01  8.50000000E-01  8.50000000E-01  8.50000000E-01  8.50000000E-01
  8.50000000E-01  8.50000000E-01  8.50000000E-01  8.50000000E-01  8.50000000E-01
  8.50000000E-01  8.50000000E-01  8.50000000E-01  8.50000000E-01  8.50000000E-01
  8.50000000E-01  8.50000000E-01  8.50000000E-01  8.50000000E-01  8.50000000E-01
  8.50000000E-01  8.50000000E-01  8.50000000E-01  8.50000000E-01  8.50000000E-01
  8.50000000E-01  8.50000000E-01  8.50000000E-01  8.50000000E-01  8.50000000E-01
  8.50000000E-01  8.50000000E-01  8.50000000E-01  8.50000000E-01  8.50000000E-01
  8.50000000E-01  8.50000000E-01  8.50000000E-01  8.50000000E-01  8.50000000E-01
  8.50000000E-01  8.50000000E-01  8.50000000E-01  8.50000000E-01  8.50000000E-01
  8.50000000E-01  8.50000000E-01  8.50000000E-01  8.50000000E-01  8.50000000E-01
  8.50000000E-01  8.50000000E-01  8.50000000E-01  8.50000000E-01  8.50000000E-01
  8.50000000E-01  8.50000000E-01  8.50000000E-01  8.50000000E-01  8.50000000E-01
  8.50000000E-01  8.50000000E-01  8.50000000E-01  8.50000000E-01  8.50000000E-01
  8.50000000E-01  8.50000000E-01  8.50000000E-01  8.50000000E-01  8.50000000E-01
  8.50000000E-01  8.50000000E-01  8.50000000E-01  8.50000000E-01  8.50000000E-01
  8.50000000E-01  8.50000000E-01  8.50000000E-01  8.50000000E-01  8.50000000E-01
  8.50000000E-01  8.50000000E-01  8.50000000E-01  8.50000000E-01  8.50000000E-01
  8.50000000E-01  8.50000000E-01  8.50000000E-01  8.50000000E-01  8.50000000E-01
  8.50000000E-01  8.50000000E-01  8.50000000E-01  8.50000000E-01  8.50000000E-01
  8.50000000E-01  8.50000000E-01  8.50000000E-01  8.50000000E-01  8.50000000E-01
  8.50000000E-01  8.50000000E-01  8.50000000E-01  8.50000000E-01  8.50000000E-01
  8.50000000E-01  8.50000000E-01  8.50000000E-01  8.50000000E-01  8.50000000E-01
  8.50000000E-01  8.50000000E-01  8.50000000E-01  8.50000000E-01  8.50000000E-01
  8.50000000E-01  8.50000000E-01  8.50000000E-01  8.50000000E-01  8.50000000E-01
  8.50000000E-01  8.50000000E-01  8.50000000E-01  8.50000000E-01  8.50000000E-01
  8.50000000E-01  8.50000000E-01  8.50000000E-01  8.50000000E-01  8.50000000E-01
  8.50000000E-01  8.50000000E-01  8.50000000E-01  8.50000000E-01  8.50000000E-01
  8.50000000E-01  8.50000000E-01  8.50000000E-01  8.50000000E-01  8.50000000E-01
  8.50000000E-01  8.50000000E-01  8.50000000E-01  8.50000000E-01  8.50000000E-01
  8.50000000E-01  8.50000000E-01  8.50000000E-01  8.50000000E-01  8.50000000E-01
  8.50000000E-01  8.50000000E-01  8.50000000E-01  8.50000000E-01  8.50000000E-01
  8.50000000E-01  8.50000000E-01  8.50000000E-01  8.50000000E-01  8.50000000E-01
  8.50000000E-01  8.50000000E-01  8.50000000E-01  8.50000000E-01  8.50000000E-01
  8.50000000E-01  8.50000000E-01  8.50000000E-01  8.50000000E-01  8.50000000E-01
  8.50000000E-01  8.50000000E-01  8.50000000E-01  8.50000000E-01  8.50000000E-01
  8.50000000E-01  8.50000000E-01  8.50000000E-01  8.50000000E-01  8.50000000E-01
  8.50000000E-01  8.50000000E-01  8.50000000E-01  8.50000000E-01  8.50000000E-01
  8.50000000E-01  8.50000000E-01  8.50000000E-01  8.50000000E-01  8.50000000E-01
  8.50000000E-01  8.50000000E-01  8.50000000E-01  8.50000000E-01  8.50000000E-01
  8.50000000E-01  8.50000000E-01  8.50000000E-01  8.50000000E-01  8.50000000E-01
  8.50000000E-01  8.50000000E-01  8.50000000E-01  8.50000000E-01  8.50000000E-01
  8.50000000E-01  8.50000000E-01  8.50000000E-01  8.50000000E-01  8.50000000E-01
  8.50000000E-01  8.50000000E-01  8.50000000E-01  8.50000000E-01  8.50000000E-01
  8.50000000E-01  8.50000000E-01  8.50000000E-01  8.50000000E-01  8.50000000E-01
  8.50000000E-01  8.50000000E-01  8.50000000E-01  8.50000000E-01  8.50000000E-01
  8.50000000E-01  8.50000000E-01  8.50000000E-01  8.50000000E-01  8.50000000E-01
  8.50000000E-01  8.50000000E-01  8.50000000E-01  8.50000000E-01  8.50000000E-01
  8.50000000E-01  8.50000000E-01  8.50000000E-01  8.50000000E-01  8.50000000E-01
  8.50000000E-01  8.50000000E-01  8.50000000E-01  8.50000000E-01  8.50000000E-01
  8.50000000E-01  8.50000000E-01  8.50000000E-01  8.50000000E-01  8.50000000E-01
  8.50000000E-01  8.50000000E-01  8.50000000E-01  8.50000000E-01  8.50000000E-01
  8.50000000E-01  8.50000000E-01  8.50000000E-01  8.50000000E-01  8.50000000E-01
  8.50000000E-01  8.50000000E-01  8.50000000E-01  8.50000000E-01  8.50000000E-01
  8.50000000E-01  8.50000000E-01  8.50000000E-01  8.50000000E-01  8.50000000E-01
  8.50000000E-01  8.50000000E-01  8.50000000E-01  8.50000000E-01  8.50000000E-01
  8.50000000E-01  8.50000000E-01  8.50000000E-01  8.50000000E-01  8.50000000E-01
  8.50000000E-01  8.50000000E-01  8.50000000E-01  8.50000000E-01  8.50000000E-01
  8.50000000E-01  8.50000000E-01  8.50000000E-01  8.50000000E-01  8.50000000E-01
  8.50000000E-01  8.50000000E-01  8.50000000E-01  8.50000000E-01  8.50000000E-01
  8.50000000E-01  8.50000000E-01  8.50000000E-01  8.50000000E-01  8.50000000E-01
  8.50000000E-01  8.50000000E-01  8.50000000E-01  8.50000000E-01  8.50000000E-01
  8.50000000E-01  8.50000000E-01  8.50000000E-01  8.50000000E-01  8.50000000E-01
  8.50000000E-01  8.50000000E-01  8.50000000E-01  8.50000000E-01  8.50000000E-01
  8.50000000E-01  8.50000000E-01  8.50000000E-01  8.50000000E-01  8.50000000E-01
  8.50000000E-01  8.50000000E-01  8.50000000E-01  8.50000000E-01  8.50000000E-01
  8.50000000E-01  8.50000000E-01  8.50000000E-01  8.50000000E-01  8.50000000E-01
  8.50000000E-01  8.50000000E-01  8.50000000E-01  8.50000000E-01  8.50000000E-01
  8.50000000E-01  8.50000000E-01  8.50000000E-01  8.50000000E-01  8.50000000E-01
  8.50000000E-01  8.50000000E-01  8.50000000E-01  8.50000000E-01  8.50000000E-01
  8.50000000E-01  8.50000000E-01  8.50000000E-01  8.50000000E-01  8.50000000E-01
  8.50000000E-01  8.50000000E-01  8.50000000E-01  8.50000000E-01  8.50000000E-01
  8.50000000E-01  8.50000000E-01  8.50000000E-01  8.50000000E-01  8.50000000E-01
  8.50000000E-01  8.50000000E-01  8.50000000E-01  8.50000000E-01  8.50000000E-01
  8.50000000E-01  8.50000000E-01  8.50000000E-01  8.50000000E-01  8.50000000E-01
  8.50000000E-01  8.50000000E-01  8.50000000E-01  8.50000000E-01  8.50000000E-01
  8.50000000E-01  8.50000000E-01  8.50000000E-01  8.50000000E-01  8.50000000E-01
  8.50000000E-01  8.50000000E-01  8.50000000E-01  8.50000000E-01  8.50000000E-01
  8.50000000E-01  8.50000000E-01  8.50000000E-01  8.50000000E-01  8.50000000E-01
  8.50000000E-01  8.50000000E-01  8.50000000E-01  8.50000000E-01  8.50000000E-01
  8.50000000E-01  8.50000000E-01  8.50000000E-01  8.50000000E-01  8.50000000E-01
  8.50000000E-01  8.50000000E-01  8.50000000E-01  8.50000000E-01  8.50000000E-01
  8.50000000E-01  8.50000000E-01  8.50000000E-01  8.50000000E-01  8.50000000E-01
  8.50000000E-01  8.50000000E-01  8.50000000E-01  8.50000000E-01  8.50000000E-01
  8.50000000E-01  8.50000000E-01  8.50000000E-01  8.50000000E-01  8.50000000E-01
  8.50000000E-01  8.50000000E-01  8.50000000E-01  8.50000000E-01  8.50000000E-01
  8.50000000E-01  8.50000000E-01  8.50000000E-01  8.50000000E-01  8.50000000E-01
  8.50000000E-01  8.50000000E-01  8.50000000E-01  8.50000000E-01  8.50000000E-01
  8.50000000E-01  8.50000000E-01  8.50000000E-01  8.50000000E-01  8.50000000E-01
  8.50000000E-01  8.50000000E-01  8.50000000E-01  8.50000000E-01  8.50000000E-01
  8.50000000E-01  8.50000000E-01  8.50000000E-01  8.50000000E-01  8.50000000E-01
  8.50000000E-01  8.50000000E-01  8.50000000E-01  8.50000000E-01  8.50000000E-01
  8.50000000E-01  8.50000000E-01  8.50000000E-01  8.50000000E-01  8.50000000E-01
  8.50000000E-01  8.50000000E-01  8.50000000E-01  8.50000000E-01  8.50000000E-01
  8.50000000E-01  8.50000000E-01  8.50000000E-01  8.50000000E-01  8.50000000E-01
  8.50000000E-01  8.50000000E-01  8.50000000E-01  8.50000000E-01  8.50000000E-01
  8.50000000E-01  8.50000000E-01  8.50000000E-01  8.50000000E-01  8.50000000E-01
  8.50000000E-01  8.50000000E-01  8.50000000E-01  8.50000000E-01  8.50000000E-01
  8.50000000E-01  8.50000000E-01  8.50000000E-01  8.50000000E-01  8.50000000E-01
  8.50000000E-01  8.50000000E-01  8.50000000E-01  8.50000000E-01  8.50000000E-01
  8.50000000E-01  8.50000000E-01  8.50000000E-01  8.50000000E-01  8.50000000E-01
  8.50000000E-01  8.50000000E-01  8.50000000E-01  8.50000000E-01  8.50000000E-01
  8.50000000E-01  8.50000000E-01  8.50000000E-01  8.50000000E-01  8.50000000E-01
  8.50000000E-01  8.50000000E-01  8.50000000E-01  8.50000000E-01  8.50000000E-01
  8.50000000E-01  8.50000000E-01  8.50000000E-01  8.50000000E-01  8.50000000E-01
  8.50000000E-01  8.50000000E-01  8.50000000E-01  8.50000000E-01  8.50000000E-01
  8.50000000E-01  8.50000000E-01  8.50000000E-01  8.50000000E-01  8.50000000E-01
  8.50000000E-01  8.50000000E-01  8.50000000E-01  8.50000000E-01  8.50000000E-01
  8.50000000E-01  8.50000000E-01  8.50000000E-01  8.50000000E-01  8.50000000E-01
  8.50000000E-01  8.50000000E-01  8.50000000E-01  8.50000000E-01  8.50000000E-01
  8.50000000E-01  8.50000000E-01  8.50000000E-01  8.50000000E-01  8.50000000E-01
  8.50000000E-01  8.50000000E-01  8.50000000E-01  8.50000000E-01  8.50000000E-01
  8.50000000E-01  8.50000000E-01  8.50000000E-01  8.50000000E-01  8.50000000E-01
  8.50000000E-01  8.50000000E-01  8.50000000E-01  8.50000000E-01  8.50000000E-01
  8.50000000E-01  8.50000000E-01  8.50000000E-01  8.50000000E-01  8.50000000E-01
  8.50000000E-01  8.50000000E-01  8.50000000E-01  8.50000000E-01  8.50000000E-01
  8.50000000E-01  8.50000000E-01  8.50000000E-01  8.50000000E-01  8.50000000E-01
  8.50000000E-01  8.50000000E-01  8.50000000E-01  8.50000000E-01  8.50000000E-01
  8.50000000E-01  8.50000000E-01  8.50000000E-01  8.50000000E-01  8.50000000E-01
  8.50000000E-01  8.50000000E-01  8.50000000E-01  8.50000000E-01  8.50000000E-01
  8.50000000E-01  8.50000000E-01  8.50000000E-01  8.50000000E-01  8.50000000E-01
  8.50000000E-01  8.50000000E-01  8.50000000E-01  8.50000000E-01  8.50000000E-01
  8.50000000E-01  8.50000000E-01  8.50000000E-01  8.50000000E-01  8.50000000E-01
  8.50000000E-01  8.50000000E-01  8.50000000E-01  8.50000000E-01  8.50000000E-01
  8.50000000E-01  8.50000000E-01  8.50000000E-01  8.50000000E-01  8.50000000E-01
  8.50000000E-01  8.50000000E-01  8.50000000E-01  8.50000000E-01  8.50000000E-01
  8.50000000E-01  8.50000000E-01  8.50000000E-01  8.50000000E-01  8.50000000E-01
  8.50000000E-01  8.50000000E-01  8.50000000E-01  8.50000000E-01  8.50000000E-01
  8.50000000E-01  8.50000000E-01  8.50000000E-01  8.50000000E-01  8.50000000E-01
  8.50000000E-01  8.50000000E-01  8.50000000E-01  8.50000000E-01  8.50000000E-01
  8.50000000E-01  8.50000000E-01  8.50000000E-01  8.50000000E-01  8.50000000E-01
  8.50000000E-01  8.50000000E-01  8.50000000E-01  8.50000000E-01  8.50000000E-01
  8.50000000E-01  8.50000000E-01  8.50000000E-01  8.50000000E-01  8.50000000E-01
  8.50000000E-01  8.50000000E-01  8.50000000E-01  8.50000000E-01  8.50000000E-01
  8.50000000E-01  8.50000000E-01  8.50000000E-01  8.50000000E-01  8.50000000E-01
  8.50000000E-01  8.50000000E-01  8.50000000E-01  8.50000000E-01  8.50000000E-01
  8.50000000E-01  8.50000000E-01  8.50000000E-01  8.50000000E-01  8.50000000E-01
  8.50000000E-01  8.50000000E-01  8.50000000E-01  8.50000000E-01  8.50000000E-01
  8.50000000E-01  8.50000000E-01  8.50000000E-01  8.50000000E-01  8.50000000E-01
  8.50000000E-01  8.50000000E-01  8.50000000E-01  8.50000000E-01  8.50000000E-01
  8.50000000E-01  8.50000000E-01  8.50000000E-01  8.50000000E-01  8.50000000E-01
  8.50000000E-01  8.50000000E-01  8.50000000E-01  8.50000000E-01  8.50000000E-01
  8.50000000E-01  8.50000000E-01  8.50000000E-01  8.50000000E-01  8.50000000E-01
  8.50000000E-01  8.50000000E-01  8.50000000E-01  8.50000000E-01  8.50000000E-01
  8.50000000E-01  8.50000000E-01  8.50000000E-01  8.50000000E-01  8.50000000E-01
  8.50000000E-01  8.50000000E-01  8.50000000E-01  8.50000000E-01  8.50000000E-01
  8.50000000E-01  8.50000000E-01  8.50000000E-01  8.50000000E-01  8.50000000E-01
  8.50000000E-01  8.50000000E-01  8.50000000E-01  8.50000000E-01  8.50000000E-01
  8.50000000E-01  8.50000000E-01  8.50000000E-01  8.50000000E-01  8.50000000E-01
  8.50000000E-01  8.50000000E-01  8.50000000E-01  8.50000000E-01  8.50000000E-01
  8.50000000E-01  8.50000000E-01  8.50000000E-01  8.50000000E-01  8.50000000E-01
  8.50000000E-01  8.50000000E-01  8.50000000E-01  8.50000000E-01  8.50000000E-01
  8.50000000E-01  8.50000000E-01  8.50000000E-01  8.50000000E-01  8.50000000E-01
  8.50000000E-01  8.50000000E-01  8.50000000E-01  8.50000000E-01  8.50000000E-01
  8.50000000E-01  8.50000000E-01  8.50000000E-01  8.50000000E-01  8.50000000E-01
  8.50000000E-01  8.50000000E-01  8.50000000E-01  8.50000000E-01  8.50000000E-01
  8.50000000E-01  8.50000000E-01  8.50000000E-01  8.50000000E-01  8.50000000E-01
  8.50000000E-01  8.50000000E-01  8.50000000E-01  8.50000000E-01  8.50000000E-01
  8.50000000E-01  8.50000000E-01  8.50000000E-01  8.50000000E-01  8.50000000E-01
  8.50000000E-01  8.50000000E-01  8.50000000E-01  8.50000000E-01  8.50000000E-01
  8.50000000E-01  8.50000000E-01  8.50000000E-01  8.50000000E-01  8.50000000E-01
  8.50000000E-01  8.50000000E-01  8.50000000E-01  8.50000000E-01  8.50000000E-01
  8.50000000E-01  8.50000000E-01  8.50000000E-01  8.50000000E-01  8.50000000E-01
  8.50000000E-01  8.50000000E-01  8.50000000E-01  8.50000000E-01  8.50000000E-01
  8.50000000E-01  8.50000000E-01  8.50000000E-01  8.50000000E-01  8.50000000E-01
  8.50000000E-01  8.50000000E-01  8.50000000E-01  8.50000000E-01  8.50000000E-01
  8.50000000E-01  8.50000000E-01  8.50000000E-01  8.50000000E-01  8.50000000E-01
  8.50000000E-01  8.50000000E-01  8.50000000E-01  8.50000000E-01  8.50000000E-01
  8.50000000E-01  8.50000000E-01  8.50000000E-01  8.50000000E-01  8.50000000E-01
  8.50000000E-01  8.50000000E-01  8.50000000E-01  8.50000000E-01  8.50000000E-01
  8.50000000E-01  8.50000000E-01  8.50000000E-01  8.50000000E-01  8.50000000E-01
  8.50000000E-01  8.50000000E-01  8.50000000E-01  8.50000000E-01  8.50000000E-01
  8.50000000E-01  8.50000000E-01  8.50000000E-01  8.50000000E-01  8.50000000E-01
  8.50000000E-01  8.50000000E-01  8.50000000E-01  8.50000000E-01  8.50000000E-01
  8.50000000E-01  8.50000000E-01  8.50000000E-01  8.50000000E-01  8.50000000E-01
  8.50000000E-01  8.50000000E-01  8.50000000E-01  8.50000000E-01  8.50000000E-01
  8.50000000E-01  8.50000000E-01  8.50000000E-01  8.50000000E-01  8.50000000E-01
  8.50000000E-01  8.50000000E-01  8.50000000E-01  8.50000000E-01  8.50000000E-01
  8.50000000E-01  8.50000000E-01  8.50000000E-01  8.50000000E-01  8.50000000E-01
  8.50000000E-01  8.50000000E-01  8.50000000E-01  8.50000000E-01  8.50000000E-01
  8.50000000E-01  8.50000000E-01  8.50000000E-01  8.50000000E-01  8.50000000E-01
  8.50000000E-01  8.50000000E-01  8.50000000E-01  8.50000000E-01  8.50000000E-01
  8.50000000E-01  8.50000000E-01  8.50000000E-01  8.50000000E-01  8.50000000E-01
  8.50000000E-01  8.50000000E-01  8.50000000E-01  8.50000000E-01  8.50000000E-01
  8.50000000E-01  8.50000000E-01  8.50000000E-01  8.50000000E-01  8.50000000E-01
  8.50000000E-01  8.50000000E-01  8.50000000E-01  8.50000000E-01  8.50000000E-01
  8.50000000E-01  8.50000000E-01  8.50000000E-01  8.50000000E-01  8.50000000E-01
  8.50000000E-01  8.50000000E-01  8.50000000E-01  8.50000000E-01  8.50000000E-01
  8.50000000E-01  8.50000000E-01  8.50000000E-01  8.50000000E-01  8.50000000E-01
  8.50000000E-01  8.50000000E-01  8.50000000E-01  8.50000000E-01  8.50000000E-01
  8.50000000E-01  8.50000000E-01  8.50000000E-01  8.50000000E-01  8.50000000E-01
  8.50000000E-01  8.50000000E-01  8.50000000E-01  8.50000000E-01  8.50000000E-01
  8.50000000E-01  8.50000000E-01  8.50000000E-01  8.50000000E-01  8.50000000E-01
  8.50000000E-01  8.50000000E-01  8.50000000E-01  8.50000000E-01  8.50000000E-01
  8.50000000E-01  8.50000000E-01  8.50000000E-01  8.50000000E-01  8.50000000E-01
  8.50000000E-01  8.50000000E-01  8.50000000E-01  8.50000000E-01  8.50000000E-01
  8.50000000E-01  8.50000000E-01  8.50000000E-01  8.50000000E-01  8.50000000E-01
  8.50000000E-01  8.50000000E-01  8.50000000E-01  8.50000000E-01  8.50000000E-01
  8.50000000E-01  8.50000000E-01  8.50000000E-01  8.50000000E-01  8.50000000E-01
  8.50000000E-01  8.50000000E-01  8.50000000E-01  8.50000000E-01  8.50000000E-01
  8.50000000E-01  8.50000000E-01  8.50000000E-01  8.50000000E-01  8.50000000E-01
  8.50000000E-01  8.50000000E-01  8.50000000E-01  8.50000000E-01  8.50000000E-01
  8.50000000E-01  8.50000000E-01  8.50000000E-01  8.50000000E-01  8.50000000E-01
  8.50000000E-01  8.50000000E-01  8.50000000E-01  8.50000000E-01  8.50000000E-01
  8.50000000E-01  8.50000000E-01  8.50000000E-01  8.50000000E-01  8.50000000E-01
  8.50000000E-01  8.50000000E-01  8.50000000E-01  8.50000000E-01  8.50000000E-01
  8.50000000E-01  8.50000000E-01  8.50000000E-01  8.50000000E-01  8.50000000E-01
  8.50000000E-01  8.50000000E-01  8.50000000E-01  8.50000000E-01  8.50000000E-01
  8.50000000E-01  8.50000000E-01  8.50000000E-01  8.50000000E-01  8.50000000E-01
  8.50000000E-01  8.50000000E-01  8.50000000E-01  8.50000000E-01  8.50000000E-01
  8.50000000E-01  8.50000000E-01  8.50000000E-01  8.50000000E-01  8.50000000E-01
  8.50000000E-01  8.50000000E-01  8.50000000E-01  8.50000000E-01  8.50000000E-01
  8.50000000E-01  8.50000000E-01  8.50000000E-01  8.50000000E-01  8.50000000E-01
  8.50000000E-01  8.50000000E-01  8.50000000E-01  8.50000000E-01  8.50000000E-01
  8.50000000E-01  8.50000000E-01  8.50000000E-01  8.50000000E-01  8.50000000E-01
  8.50000000E-01  8.50000000E-01
%FLAG IPOL                                                                      
%FORMAT(1I8)                                                                    
       0
