
 1212  0.0000000e+00
  -0.4310000   3.4620000  -2.2600000   0.1240000   3.8720000  -3.0980000
  -1.3090000   4.0720000  -2.0690000  -0.7460000   2.4500000  -2.5110000
   0.9180000   4.8420000  -0.6170000   1.4880000   4.7870000   0.3050000
   1.5460000   5.2460000  -1.4030000   0.0510000   5.4760000  -0.4710000
   0.4620000   3.4500000  -1.0190000  -0.2610000   2.9080000   0.0810000
   1.6350000   2.6720000  -1.2710000  -1.4610000   1.1880000   0.8240000
   2.5430000   0.6870000  -1.5360000  -0.4470000   1.5780000   0.0680000
   1.5660000   1.3320000  -1.1890000   0.3810000   0.7400000  -0.6030000
   0.2240000  -0.7420000  -0.7560000   1.2110000  -1.1340000  -1.0280000
  -0.6560000  -1.1220000  -1.9450000  -0.7850000  -0.4620000  -2.9580000
  -1.2570000  -2.4030000  -1.6000000  -1.8010000  -2.9950000  -2.3140000
  -1.0430000  -2.6820000  -0.3120000  -1.3550000  -3.5780000   0.1940000
  -0.3320000  -1.5720000   0.4130000  -1.1190000  -0.9660000   0.8970000
   0.6230000  -2.0510000   1.4070000  -0.0590000  -2.4610000   2.6310000
  -0.9650000  -2.9900000   2.3360000   0.5850000  -3.1780000   3.1430000
  -0.4290000  -1.3220000   3.5880000  -1.2110000  -1.6500000   4.2660000
  -0.7900000  -0.4600000   3.0320000   0.4250000  -1.0000000   4.1740000
   1.7580000  -1.1740000   1.6490000   2.2650000  -1.0000000   0.6970000
   1.4520000  -0.1890000   2.0400000   2.7630000  -1.8140000   2.5980000
   2.4100000  -1.8090000   3.6220000   2.9390000  -2.8400000   2.2950000
   3.7020000  -1.2670000   2.5560000  -1.8120000   1.9580000   1.3110000
  -3.3540000  -0.1780000   2.8020000  -2.3470000  -0.2310000   2.6520000
  -3.4880000   0.3840000   3.6640000   7.4380000 -10.6730000   3.9540000
   7.8020000 -11.3990000   4.5370000   8.2550000 -10.2990000   3.4670000
  -1.2360000   6.7030000 -11.3920000  -0.9190000   7.1300000 -12.2940000
  -2.2230000   6.2730000 -11.5170000 -10.4670000   0.0510000   0.9780000
 -10.1880000  -0.7620000   0.4150000 -10.4390000  -0.2870000   1.9380000
   2.0120000  -7.1460000  11.0610000   2.0300000  -6.4380000  11.8300000
   2.0720000  -6.5940000  10.1510000   2.4090000   1.2410000  -5.6530000
   2.9950000   1.6180000  -4.8830000   2.3800000   0.2090000  -5.6160000
   9.2350000  -4.0680000   9.9010000   8.4210000  -3.9260000   9.3250000
  10.0030000  -3.4000000   9.6060000   3.7360000  -5.8220000  -9.0360000
   3.6310000  -6.4150000  -8.2490000   4.2900000  -4.9650000  -8.8400000
  -5.5130000  13.4680000  -2.3110000  -5.8160000  12.7080000  -1.6700000
  -6.2820000  14.0490000  -2.5250000   8.6660000  -3.4560000   6.5740000
   9.2210000  -2.6210000   6.5100000   8.6300000  -3.7870000   5.6180000
   5.9580000   6.1160000 -10.4530000   6.7390000   6.0400000 -11.1310000
   5.1330000   5.5290000 -10.6180000  -1.2380000  -9.9240000  -8.3810000
  -0.8870000  -9.0960000  -8.8890000  -1.7640000  -9.6290000  -7.5390000
   5.1650000   9.6170000  -7.2950000   5.8030000   9.6880000  -6.5180000
   4.5080000   8.7820000  -7.0590000  11.7930000   4.1960000  -4.0890000
  11.0360000   4.8370000  -3.8180000  11.8200000   3.4530000  -3.3870000
  -4.2000000   2.6080000  -1.1600000  -4.3300000   1.8520000  -0.4710000
  -4.1650000   3.5300000  -0.6930000  -5.8190000   7.2180000   0.1880000
  -6.5070000   6.7270000  -0.4020000  -6.3290000   7.7510000   0.8490000
   6.8460000   6.2410000  -3.2600000   6.7190000   5.5920000  -2.4670000
   6.3450000   7.0260000  -2.8620000  -5.6690000  11.7040000  -0.3080000
  -6.4470000  11.0910000  -0.4270000  -5.7570000  12.0930000   0.6160000
   0.9700000  -2.3450000 -11.1750000   0.3330000  -2.9800000 -10.6850000
   1.5130000  -1.7770000 -10.5460000 -13.1680000   0.2610000   1.1270000
 -13.2410000   1.0390000   0.4580000 -12.2270000  -0.0930000   1.0170000
  -1.1940000  14.5010000   0.8620000  -2.1600000  14.2320000   0.5180000
  -0.9720000  15.3460000   0.4110000  -9.0880000  -5.8300000   4.3170000
  -8.8040000  -5.0000000   3.7880000  -8.2800000  -6.4870000   4.2660000
  -7.3880000   8.9050000  -2.4590000  -7.8580000   8.1090000  -2.9490000
  -6.4440000   8.7050000  -2.1520000   3.4340000  10.8890000   5.2010000
   3.0880000  11.5030000   4.4490000   2.7420000  10.4020000   5.7500000
   7.2160000  10.0680000  -3.2560000   6.3920000   9.6610000  -2.8580000
   8.0370000   9.9970000  -2.6540000   0.6120000   2.2150000   4.1030000
   1.5410000   1.9580000   3.7410000   0.6840000   2.3780000   5.1150000
  -7.2620000  -3.8790000   9.6160000  -6.9190000  -4.8190000   9.9120000
  -7.5360000  -3.9680000   8.6390000   1.0000000 -10.1190000  -4.6030000
   0.8240000 -11.0570000  -4.1480000   0.8840000  -9.4120000  -3.8520000
  -2.0300000   5.9370000   4.6890000  -2.5390000   5.9320000   3.8210000
  -2.4510000   6.6330000   5.2770000 -11.0730000  -8.1650000  -0.7250000
 -11.2650000  -9.1450000  -0.4760000 -10.2910000  -7.9640000  -0.0850000
  -7.1930000   9.1010000   2.2450000  -6.9400000   9.6690000   3.0480000
  -7.3880000   9.6190000   1.3750000   4.2220000 -11.7400000  -0.3840000
   3.4390000 -11.2920000   0.1520000   5.1220000 -11.8690000   0.1140000
   5.5560000 -10.7400000  -2.5490000   5.3220000 -10.9750000  -1.6190000
   5.1460000 -11.4510000  -3.1640000  -7.5630000   2.5090000  -8.2140000
  -7.4140000   1.9970000  -7.3140000  -7.4220000   3.5670000  -8.0800000
  -0.2080000  11.7370000   0.9080000  -0.8050000  11.5690000   0.1000000
  -0.5680000  12.6320000   1.2520000   7.2130000  -8.0850000  -5.3150000
   7.8040000  -8.5710000  -6.0250000   7.2280000  -7.0860000  -5.4580000
  -6.2100000   0.6700000  -3.6740000  -5.7570000   1.5990000  -3.6870000
  -6.7100000   0.5850000  -4.5750000  -9.4120000  -3.0220000  10.9540000
  -9.9360000  -2.2210000  10.5610000  -8.7550000  -3.4420000  10.2520000
  -6.2770000  -1.5030000 -10.5690000  -5.9300000  -1.3830000 -11.5860000
  -6.6720000  -2.4430000 -10.4660000   2.7150000  -7.7040000   0.7070000
   3.0300000  -7.6900000  -0.2790000   2.1430000  -6.8560000   0.8210000
   4.2190000  -2.3020000  13.4260000   3.1770000  -2.3160000  13.3290000
   4.5800000  -1.9900000  12.5300000  -5.5620000  -5.5830000  12.8610000
  -5.8150000  -5.9140000  11.8920000  -5.2670000  -4.5960000  12.7290000
   8.3090000   8.1610000  -0.4790000   8.7850000   7.4210000   0.0690000
   9.0390000   8.4440000  -1.2060000  -6.2430000  -8.4250000  -4.3160000
  -7.1470000  -8.1990000  -3.8890000  -6.3320000  -9.3960000  -4.6420000
  -5.2770000   6.7940000  -7.9300000  -4.5210000   7.4670000  -8.0120000
  -5.6560000   7.0630000  -7.0060000  -5.1370000   5.0560000   6.9530000
  -4.5760000   4.4350000   6.3400000  -6.1100000   5.0450000   6.7960000
  10.5100000  -3.6740000   0.5590000  11.2640000  -4.3850000   0.2690000
   9.5080000  -3.9020000   0.5700000  -2.7720000  -4.3820000  10.2580000
  -3.6120000  -4.4640000  10.8030000  -1.9930000  -4.3340000  10.9600000
  -0.0030000 -11.7370000   5.8940000  -0.5980000 -12.0260000   5.1670000
  -0.4860000 -11.0980000   6.5780000  -7.0910000   8.0670000   7.8660000
  -6.5740000   7.3600000   8.3960000  -7.2530000   7.6700000   6.9670000
   5.0460000  -0.2630000 -11.5480000   5.0370000   0.0900000 -10.6030000
   4.1350000  -0.1670000 -11.8750000   7.0390000  -5.1180000  -4.3320000
   7.8010000  -5.0490000  -4.9930000   7.2390000  -4.3930000  -3.6610000
  -8.9070000   3.3940000   2.1840000  -9.4200000   3.3060000   1.2920000
  -9.6490000   2.9630000   2.7850000   3.7430000   6.7820000  -0.4020000
   3.9890000   5.8540000  -0.0410000   4.5100000   7.4580000  -0.2290000
  13.1570000  -4.3600000   3.8600000  12.2330000  -3.9340000   3.5270000
  13.3440000  -4.0980000   4.7720000   8.1580000   1.0700000   5.1830000
   8.3950000   1.9950000   5.5830000   8.9940000   0.6480000   4.7550000
   4.3210000   4.1310000   0.7350000   4.3060000   3.1050000   0.7200000
   4.0750000   4.4390000   1.6870000  -0.9070000   5.5010000  -8.8870000
  -1.1520000   6.0940000  -9.7120000  -1.7710000   5.1670000  -8.4280000
   0.7300000 -11.6280000  -7.0140000   0.2750000 -11.0190000  -7.6980000
   0.9690000 -10.9910000  -6.2800000  -1.3220000   5.7020000   9.2150000
  -1.4630000   6.6190000   8.7970000  -2.1140000   5.0940000   8.8740000
 -10.3470000  -0.9280000  -2.5570000 -11.0530000  -0.1750000  -2.3470000
 -10.2320000  -1.5330000  -1.7020000  -3.1160000  -0.6690000   8.6660000
  -3.8660000  -0.6480000   7.9430000  -2.3760000   0.0300000   8.4190000
  -1.3970000   0.8080000   7.0110000  -0.9740000  -0.1400000   6.9240000
  -0.6080000   1.4700000   7.0260000   2.7580000  12.4490000   0.6200000
   1.8040000  12.0820000   0.5310000   2.7190000  13.4420000   0.5490000
   1.4710000  -5.1800000   0.7350000   1.9790000  -5.1520000   1.6440000
   1.9140000  -4.4980000   0.1020000   1.7190000   0.3530000  -9.9280000
   1.6330000   1.2230000 -10.4730000   2.5580000   0.3390000  -9.3090000
  -6.8520000   4.8390000   1.5430000  -7.7640000   4.4270000   1.7680000
  -6.8340000   5.0500000   0.5360000   5.4560000   9.0610000   4.9710000
   4.6500000   9.7310000   4.9500000   5.9640000   8.9280000   4.1070000
  -2.2120000  -7.6910000   0.4660000  -1.9060000  -7.4960000  -0.4940000
  -1.6910000  -7.0720000   1.1060000  -2.0910000  -4.8630000   5.7290000
  -3.0190000  -5.2010000   5.4320000  -2.2200000  -4.2190000   6.5350000
  -2.0960000 -10.5760000  -0.0380000  -2.3260000  -9.7600000   0.5080000
  -1.0570000 -10.5430000  -0.0300000   4.4490000  13.4290000  -2.6540000
   4.7180000  12.5530000  -2.2090000   4.1240000  13.3010000  -3.6270000
   8.2260000  -4.7040000   3.9420000   8.8530000  -5.3940000   3.5090000
   7.3320000  -4.9140000   3.4900000   2.5740000  -1.6840000   6.2770000
   2.4950000  -0.6890000   6.5530000   3.4870000  -1.7950000   5.8090000
  -3.9280000  -9.1640000   2.2400000  -3.0210000  -9.5880000   2.5870000
  -3.7480000  -8.4650000   1.4850000   1.4870000  -6.1780000 -10.4320000
   2.2970000  -6.0220000  -9.7270000   0.8810000  -5.3310000 -10.3890000
   4.8930000   8.2440000  -3.1540000   4.4620000   7.9890000  -2.2370000
   4.2450000   8.7650000  -3.6920000  -1.4520000   2.9020000  11.2460000
  -0.6270000   3.4810000  10.9450000  -2.1730000   2.6730000  10.4990000
  -4.5960000  -2.5790000   3.3090000  -4.1390000  -1.6810000   3.0800000
  -4.1040000  -3.3500000   2.8380000  -6.1240000   2.7240000   5.6080000
  -5.7930000   3.5490000   5.0440000  -7.1310000   2.8040000   5.8800000
   9.8760000   9.6840000  -2.0820000  10.0700000   9.9260000  -3.0680000
  10.7350000   9.6650000  -1.5060000  -9.8900000   2.7520000  -3.1680000
 -10.3000000   2.1580000  -3.9340000  -8.9180000   2.9290000  -3.2350000
   6.7520000  11.9500000   1.1330000   7.5520000  11.9470000   0.4990000
   6.7080000  12.9770000   1.3490000   0.1140000   9.0920000   1.8740000
   0.0080000  10.0890000   1.6280000   0.6750000   8.6840000   1.0970000
   6.9480000  -6.4040000   9.8140000   7.8370000  -6.7570000  10.1750000
   6.5370000  -6.0100000  10.7010000  -3.0930000  12.6010000  -8.1950000
  -2.2930000  12.1050000  -8.7240000  -3.7750000  11.9010000  -7.7630000
   7.9130000  -1.8640000   3.4380000   8.7550000  -1.4710000   3.8280000
   7.9480000  -2.9150000   3.6660000   6.1680000   8.3540000   7.5900000
   5.7980000   8.5350000   6.6440000   7.2420000   8.4570000   7.6010000
   2.9960000   7.5070000  -6.8850000   2.4300000   8.1790000  -7.4150000
   3.1430000   6.6080000  -7.3980000   8.2470000  -9.0310000   8.8570000
   7.7630000  -8.8500000   7.9560000   7.9740000  -9.8380000   9.3950000
  -6.1730000  -1.1540000   9.2890000  -7.0550000  -0.6360000   9.1020000
  -6.3820000  -2.1410000   9.5460000   6.4640000  -2.9280000   8.1240000
   6.2970000  -1.9070000   7.9360000   7.1830000  -3.1160000   7.4760000
   4.9200000  -3.3980000  -8.8730000   5.6700000  -2.8080000  -8.5530000
   4.8090000  -3.1410000  -9.8890000   5.2390000  -8.0780000  -8.4960000
   5.3000000  -7.5960000  -9.4480000   6.2040000  -8.0560000  -8.2080000
  -2.7460000  10.0530000   5.8320000  -3.1140000   9.0800000   5.7680000
  -1.8430000  10.0800000   5.4220000  -4.8240000  10.8170000  -7.3230000
  -5.4620000  10.6980000  -6.5130000  -4.3430000   9.9190000  -7.5180000
  -1.8980000  -0.7100000  13.0940000  -1.8320000  -1.6880000  13.5270000
  -1.6310000   0.1810000  13.6620000   4.6490000  11.1100000  -0.6240000
   3.7270000  11.4600000  -0.2830000   5.1840000  11.4250000   0.1780000
  -2.3290000  -9.1090000  -5.9810000  -3.1010000  -8.9160000  -5.3200000
  -1.5300000  -8.5500000  -5.6210000  -9.6330000  -6.8920000   7.6920000
  -9.3890000  -7.5570000   6.9640000 -10.6550000  -6.8170000   7.7640000
   2.4080000 -11.6690000   6.0320000   1.3940000 -11.6850000   6.0950000
   2.7710000 -12.6290000   6.1130000   3.2730000   4.5130000   3.4330000
   3.1070000   3.4960000   3.4050000   2.3570000   5.0010000   3.4590000
  -1.7030000   7.2460000   0.7500000  -1.1000000   7.8830000   1.2900000
  -2.0250000   6.4760000   1.3490000  -7.8700000   7.1220000  -9.2510000
  -6.8800000   7.1260000  -9.0070000  -8.2570000   6.2870000  -8.7620000
  -5.1090000   8.2620000   4.5400000  -4.5710000   8.3840000   3.6350000
  -4.5010000   7.8390000   5.2820000   7.6660000  -1.6930000  -5.6030000
   8.4640000  -2.2690000  -5.2150000   6.9590000  -1.8320000  -4.8910000
  -9.7960000   6.3700000  -2.2080000 -10.0840000   7.2660000  -1.9940000
 -10.4460000   5.6150000  -1.7940000  10.7010000  -4.9500000  -3.0350000
  11.0220000  -5.3340000  -3.9130000  11.5510000  -4.7850000  -2.4710000
  -6.3060000  -6.4310000  10.2350000  -5.6110000  -6.9110000   9.6730000
  -7.2450000  -6.8850000  10.1500000   8.4090000  -6.6840000  -1.6180000
   7.9740000  -6.0760000  -2.3100000   9.4350000  -6.6690000  -1.7030000
  -5.4070000   4.6120000   3.7380000  -4.4870000   4.5630000   3.3160000
  -6.0110000   4.7340000   2.9090000  10.8580000  -3.2640000   3.0710000
  10.7290000  -3.1980000   2.0560000  10.2950000  -2.6270000   3.6020000
  -4.5510000   0.3300000   0.3820000  -3.9690000   0.2120000   1.2270000
  -5.4550000  -0.0850000   0.6650000  -3.5360000 -10.6340000   8.3080000
  -3.6040000 -11.6320000   8.0280000  -4.5170000 -10.4030000   8.1530000
   4.9010000  -4.7350000   5.3930000   4.9920000  -3.7400000   5.6000000
   5.5120000  -5.2930000   5.9710000  -3.4620000 -10.4650000 -10.4140000
  -2.8010000 -10.3190000  -9.6860000  -4.4670000 -10.1340000 -10.1930000
   8.6260000   3.5180000   6.2810000   8.2490000   4.2920000   5.6930000
   8.3740000   3.8080000   7.2110000  12.4170000   0.2690000   2.8560000
  12.0200000  -0.2730000   2.0180000  12.3220000   1.2490000   2.6450000
   7.2360000   0.8270000  -0.5140000   8.2780000   0.7240000  -0.4470000
   6.9180000   0.0200000   0.0780000   2.3130000  -3.0310000  -7.5680000
   3.2190000  -3.3910000  -7.7860000   1.5940000  -3.4850000  -8.1090000
   2.8160000   2.7400000  -7.9160000   2.8920000   2.2730000  -6.9910000
   3.7740000   2.6130000  -8.2290000  -8.0720000  -4.2210000   7.0540000
  -7.3090000  -4.1440000   6.2530000  -8.5870000  -5.1260000   6.7780000
  -3.4570000   7.2960000   6.4700000  -3.2180000   7.7110000   7.3680000
  -4.0180000   6.4770000   6.7500000   3.5710000  -7.5220000   7.0860000
   3.2900000  -7.9090000   6.1940000   4.5290000  -7.3510000   7.0620000
   2.6270000  15.6370000  -2.6850000   3.1480000  14.7760000  -2.4630000
   3.2550000  16.2010000  -3.3020000   1.7130000  -6.0140000   8.6050000
   1.9230000  -5.0100000   8.5460000   2.4730000  -6.4460000   8.0170000
   7.5960000  -8.4920000   6.2270000   8.4950000  -8.3950000   5.7490000
   7.1190000  -9.3090000   5.8170000  -6.5400000  -3.2080000   5.0140000
  -5.6770000  -2.8990000   4.4980000  -7.3280000  -2.8240000   4.4840000
 -10.5050000   0.6630000  -5.0160000 -10.5220000   0.1830000  -4.0400000
 -11.2440000   0.2860000  -5.5650000   4.9860000 -10.9600000   7.0720000
   4.3960000 -10.9900000   6.2460000   4.3870000 -10.4330000   7.7690000
  -1.8820000   2.8310000   3.1920000  -0.8900000   2.6670000   3.4530000
  -2.4480000   2.3860000   3.9310000  10.6850000   3.7340000   4.4350000
  10.1750000   3.4770000   5.2860000  10.1750000   3.2880000   3.6810000
  -1.7480000 -10.9740000  -2.7090000  -1.8260000 -11.1000000  -1.7020000
  -1.6040000 -10.0010000  -2.8590000   6.2070000   1.3420000  -3.0580000
   6.9300000   1.8420000  -3.6000000   6.5350000   1.1870000  -2.0880000
  -6.7150000  -7.3120000   3.8330000  -6.4120000  -7.1190000   2.8860000
  -6.9800000  -8.2940000   4.0110000   9.6620000 -10.0800000  -0.4890000
   9.7290000 -10.7600000  -1.2450000   9.0560000  -9.3480000  -0.8440000
  -6.0750000  -9.9890000 -10.1050000  -6.5870000 -10.8730000  -9.9960000
  -6.2620000  -9.4640000  -9.2320000   6.2770000   5.0020000  -7.7880000
   5.9780000   5.5430000  -6.9630000   6.1000000   5.5350000  -8.6180000
   4.8250000   9.2720000  -9.9760000   4.2100000   8.5290000 -10.4240000
   4.3680000   9.6680000  -9.1780000  -7.1750000   3.9570000  -3.5830000
  -6.1690000   3.6810000  -3.7430000  -7.6550000   4.3450000  -4.4610000
   6.5310000   9.3590000   2.4410000   6.4870000  10.2580000   1.9450000
   6.3010000   8.6140000   1.7140000  -4.1750000   0.3530000  11.2890000
  -3.5890000  -0.3670000  11.7370000  -4.4620000   0.0240000  10.3670000
  -0.8380000  -5.9040000   2.0630000  -0.4940000  -6.1250000   3.0110000
  -0.0320000  -5.5910000   1.4940000   5.7500000   1.1460000   4.2960000
   6.7370000   0.9350000   4.6390000   5.1850000   1.5860000   5.0870000
   3.7820000   2.3960000  -3.6400000   3.3010000   2.4220000  -2.7400000
   4.7430000   2.0390000  -3.4720000   2.9860000   4.7020000  10.5170000
   3.5860000   5.3700000  11.0050000   2.7810000   3.8880000  11.1030000
  -0.6190000  -4.2820000  -9.8630000  -1.6470000  -4.2260000  -9.6910000
  -0.1890000  -4.4580000  -8.9870000  10.4450000  -0.2230000  -3.5830000
  10.1760000   0.2780000  -4.4060000  10.0770000  -1.1530000  -3.4840000
  10.2860000  -7.7780000   5.4330000  10.2440000  -7.1370000   4.6250000
  10.2060000  -7.3430000   6.3560000  -3.2760000   8.5980000  -7.8880000
  -2.4480000   8.7600000  -7.2610000  -2.9930000   8.7590000  -8.8750000
   5.2260000  -1.8560000   5.4200000   5.8240000  -1.3220000   6.0630000
   5.5550000  -1.6490000   4.4750000 -10.1040000   2.5430000  -0.3900000
  -9.9660000   2.4930000  -1.4490000 -10.2150000   1.6310000   0.0380000
   3.5510000   4.8280000  -4.9740000   2.5760000   5.1430000  -4.9280000
   3.6700000   3.9300000  -4.4860000  -5.3280000  -7.0870000  -1.1120000
  -6.0260000  -7.6010000  -1.6890000  -5.5890000  -7.1000000  -0.0790000
   0.8230000   5.8420000   3.4660000   0.8660000   6.7510000   3.0100000
  -0.0740000   5.7360000   3.9480000  -4.4570000   8.3280000 -11.4130000
  -5.3910000   8.0780000 -11.7480000  -4.2460000   7.6630000 -10.6360000
 -13.2040000   2.5260000  -0.5690000 -12.5840000   3.3420000  -0.5040000
 -14.1730000   2.8880000  -0.3830000  -8.7220000   7.4500000  -4.5470000
  -9.4010000   7.0930000  -3.8300000  -9.2110000   8.2840000  -4.9670000
   7.3580000   4.9420000   1.8860000   7.4050000   5.0180000   2.9250000
   7.3110000   3.9180000   1.7830000  11.0750000  -1.9110000   6.8110000
  10.8930000  -1.8210000   7.8060000  12.0400000  -2.3020000   6.7080000
 -11.2330000  -6.4500000  -2.7850000 -10.3400000  -5.8680000  -2.7650000
 -11.3640000  -6.8290000  -1.8130000 -12.6930000   0.5520000  -2.4700000
 -12.7000000   1.3280000  -1.8070000 -13.3850000   0.7210000  -3.1980000
  -4.5150000  -6.8530000 -12.3760000  -5.2160000  -6.5640000 -11.6030000
  -4.0140000  -6.0170000 -12.6590000  -7.4440000  -9.3240000  -1.3220000
  -7.9930000  -8.8760000  -0.5650000  -7.9410000  -8.9920000  -2.2380000
  -3.3080000  -4.3300000  -9.8260000  -3.7490000  -3.9590000 -10.6610000
  -3.4010000  -5.3720000  -9.8170000   8.2720000  -7.6160000   0.8940000
   8.1350000  -7.3540000  -0.0900000   7.7070000  -8.4190000   0.9730000
  -0.1350000   0.6020000  10.8770000  -0.7410000   1.4030000  10.6390000
  -0.6560000  -0.0600000  11.4710000  -0.3320000  -0.0890000  -8.0850000
   0.2660000  -0.1240000  -8.8910000  -0.3510000   0.8810000  -7.7870000
  -0.6130000  -7.3690000   7.5180000   0.3180000  -7.1630000   7.8530000
  -0.7460000  -6.8510000   6.6580000 -10.1560000  -2.5480000  -0.3120000
 -10.6800000  -3.2710000   0.2020000  -9.1860000  -2.8000000  -0.4920000
   7.0270000   2.2670000   1.8210000   7.0280000   1.6970000   0.9370000
   6.3030000   1.9100000   2.4770000  -3.5480000  -4.3400000 -12.8520000
  -3.9660000  -3.5850000 -13.4450000  -2.5820000  -4.1080000 -12.6360000
   4.4900000  12.2840000  -7.7770000   4.9250000  11.3370000  -7.6450000
   5.0930000  13.1350000  -7.7000000   1.5380000   9.0470000  -8.7240000
   1.9390000   8.5540000  -9.5460000   1.7640000  10.0400000  -8.7850000
  -7.2690000   5.2430000  -1.2270000  -7.0760000   4.5900000  -2.0340000
  -7.9100000   5.9500000  -1.6260000   5.3650000   3.3450000   9.2030000
   4.5170000   3.8610000   9.4790000   6.2110000   3.9690000   9.1350000
  -5.9970000  -2.8830000  -4.4810000  -5.6790000  -2.3990000  -5.3280000
  -6.9050000  -2.4250000  -4.2280000   7.6620000  -4.3880000   0.4340000
   6.7600000  -4.1450000   0.8420000   7.9540000  -5.3320000   0.4130000
   2.0810000  -3.3630000   8.2570000   2.2110000  -2.6970000   7.4590000
   3.0200000  -3.4910000   8.7270000   7.1740000   8.5640000  -5.5740000
   7.3020000   9.1090000  -4.7280000   6.5810000   7.7500000  -5.5680000
   2.8770000   7.5990000 -10.6080000   2.3590000   7.8850000 -11.4380000
   3.1850000   6.6630000 -10.8660000  -4.0480000   5.2080000  -0.3340000
  -3.9850000   5.4780000  -1.3310000  -4.6740000   5.9330000   0.0540000
   8.6470000   4.8280000  -6.7460000   8.9090000   5.7670000  -6.4100000
   7.9820000   4.8010000  -7.4900000   0.5310000 -12.8050000  -3.5840000
   0.4440000 -13.8560000  -3.7560000  -0.3140000 -12.4860000  -3.0410000
   5.8070000  -5.5010000   3.0790000   5.5730000  -6.4430000   2.7380000
   5.3520000  -5.1690000   3.8970000   2.1250000   2.7050000 -11.9390000
   2.6930000   2.8260000 -12.7730000   1.1340000   3.0440000 -12.0390000
   4.3950000  -3.8340000   9.7420000   5.0790000  -3.6460000   8.9230000
   4.9260000  -4.0210000  10.6370000   6.6120000   2.7050000  -9.2240000
   6.4070000   3.4390000  -8.5600000   7.3860000   3.0210000  -9.8650000
   6.9370000  -0.3990000   7.2370000   7.4810000   0.1350000   6.5000000
   6.8490000   0.1620000   8.0570000  -4.4080000  11.3920000  -3.8920000
  -5.4070000  11.3550000  -4.2400000  -4.4800000  12.0920000  -3.1700000
  -4.6860000   2.9340000  -3.7500000  -4.4500000   2.8930000  -2.7340000
  -3.9560000   2.3950000  -4.2460000   6.8190000  -1.6430000  -8.2010000
   6.9640000  -1.6620000  -7.1510000   7.7210000  -1.6390000  -8.7000000
  -2.8520000  -6.7780000   8.9280000  -1.8940000  -7.0110000   8.6810000
  -2.7180000  -5.8950000   9.4160000  -3.5940000  -5.4690000  -2.3050000
  -4.2440000  -6.1250000  -1.8200000  -3.9630000  -4.5240000  -2.1090000
   1.6630000   2.2480000  11.6910000   1.4810000   2.7570000  12.5550000
   0.9750000   1.5070000  11.6770000   3.0260000  -9.2450000  -6.0660000
   2.2430000  -9.7560000  -5.6140000   3.7180000  -8.8370000  -5.3850000
  -5.8370000  -9.8780000   4.4130000  -5.8350000 -10.8410000   4.8140000
  -5.0350000  -9.7010000   3.7930000 -11.9650000   4.3690000  -3.6240000
 -12.1450000   5.1790000  -2.9900000 -11.0790000   4.0350000  -3.3290000
  -6.5560000  10.5780000   4.7090000  -5.8850000   9.8170000   4.9020000
  -7.2340000  10.5210000   5.4820000  -0.3930000  10.0310000   4.6370000
  -0.2400000   9.4320000   3.8040000   0.1200000  10.9460000   4.6700000
  -1.7630000   3.8070000   6.2960000  -1.6490000   4.5180000   5.5950000
  -0.8880000   3.3840000   6.5690000  -3.6310000 -11.6990000  -5.8290000
  -3.0480000 -10.8670000  -5.9110000  -3.0070000 -12.3820000  -5.5610000
  -4.5890000   0.1400000  -9.4030000  -3.8400000  -0.4470000  -9.0850000
  -5.2760000  -0.5120000  -9.9010000  -8.7580000   6.7410000   2.3750000
  -8.2290000   7.5890000   2.1270000  -8.1210000   5.9710000   2.4630000
  -1.9860000   8.4320000  -1.6530000  -1.8800000   7.9220000  -0.7550000
  -1.1290000   8.2720000  -2.2010000   5.8100000  -1.4680000  -3.3980000
   4.7910000  -1.6190000  -3.3000000   5.9750000  -0.4500000  -3.3500000
  -8.0440000   5.1360000   6.4170000  -7.9610000   5.8200000   5.6110000
  -8.8810000   4.5650000   6.2550000   2.8250000   0.1500000   9.7480000
   2.6550000   0.9570000  10.3820000   3.4760000  -0.3930000  10.2810000
   9.2530000   0.6400000  -6.0400000   9.5990000   0.7950000  -6.9860000
   8.8080000  -0.2610000  -5.8910000   6.0480000  -6.4080000   7.2010000
   6.3000000  -6.2420000   8.1870000   6.7810000  -6.9740000   6.7240000
 -11.1970000   5.7850000   1.9230000 -11.7540000   6.6880000   2.0910000
 -10.2400000   6.0790000   2.1000000   4.5470000   5.0160000   5.8450000
   4.1210000   4.8860000   4.8670000   4.1020000   5.7180000   6.4570000
  -3.2210000 -12.5930000   1.4150000  -3.0270000 -11.7160000   0.8370000
  -2.9250000 -12.2400000   2.3170000  -8.3450000   4.9250000  -5.8350000
  -9.0360000   4.7610000  -6.4740000  -8.4080000   5.9270000  -5.6440000
   2.3090000   9.0960000  -4.6190000   2.7440000   8.7080000  -5.4460000
   1.8040000   9.9580000  -4.8430000   3.0890000  -1.6690000  -3.0310000
   2.8270000  -0.7850000  -2.5850000   2.5770000  -1.7330000  -3.9300000
  12.0930000   1.9800000  -2.2760000  13.0020000   1.8160000  -1.7620000
  11.8220000   1.0950000  -2.6530000   0.4980000  -1.9920000  10.3960000
   0.4890000  -0.9970000  10.3810000   0.8530000  -2.3700000   9.5070000
  10.7220000   4.0280000  -7.9660000   9.9980000   4.2040000  -7.2170000
  11.6210000   3.9540000  -7.5180000  -5.1380000  -1.0290000   6.8130000
  -5.7620000  -1.3980000   6.0300000  -5.4910000  -1.1400000   7.7560000
   0.8170000 -10.0000000   0.2270000   1.0550000  -9.2100000   0.8100000
   1.3000000 -10.7990000   0.7100000  -0.0020000  -8.7480000   3.9140000
   1.0290000  -8.9880000   4.0070000  -0.1330000  -7.9050000   4.4800000
  10.3030000  -0.8480000   4.4590000  11.0510000  -0.3090000   4.0180000
  10.6110000  -1.2270000   5.3670000 -10.6190000   2.0370000   3.8470000
 -10.9930000   1.0590000   3.9940000 -11.4740000   2.5210000   3.6420000
  -6.8330000  -0.6750000   1.5330000  -7.0480000   0.1520000   2.1550000
  -7.0330000  -1.5300000   2.0200000  -7.4400000   7.2990000   5.0990000
  -6.4740000   7.6010000   4.6390000  -8.0560000   7.8360000   4.5280000
   7.2660000   5.3470000   4.6380000   6.3690000   5.1370000   5.1180000
   7.3140000   6.3700000   4.6860000   1.5890000  -6.1650000 -13.1620000
   1.6020000  -6.1200000 -12.0610000   0.6930000  -5.9210000 -13.4900000
   0.5460000  -5.1860000  -7.7310000  -0.1290000  -4.9530000  -6.9990000
   1.1880000  -5.8920000  -7.3200000  -1.0200000   8.6670000  -9.5340000
  -1.0430000   8.3390000 -10.5210000  -0.0810000   8.5030000  -9.1290000
   0.7640000   2.5440000   6.9190000   1.5810000   1.9090000   6.9770000
   0.9120000   3.3550000   7.5600000  -1.0710000  -9.9990000   7.5450000
  -2.0590000 -10.0800000   7.8840000  -0.8970000  -9.0410000   7.4480000
   0.8230000 -10.2400000   9.2950000   0.4300000  -9.8220000  10.1600000
   0.0590000 -10.1250000   8.5560000  -9.5400000  -3.1450000  -7.3970000
  -9.8360000  -3.1670000  -8.3290000  -8.6680000  -2.6470000  -7.2670000
  -0.3580000  -8.3130000 -10.1110000  -0.3610000  -8.6320000 -11.0930000
   0.4640000  -7.7040000  -9.9510000   0.4660000  11.1080000  -5.5670000
   0.8360000  12.0800000  -5.7740000  -0.3260000  11.2230000  -5.0070000
   8.7290000   3.2350000  -1.8350000   7.9120000   3.6550000  -1.3010000
   8.5970000   3.0920000  -2.8160000  -3.6480000   8.7010000   2.2940000
  -3.6980000   8.1600000   1.4210000  -3.8010000   9.6550000   2.0160000
  -8.1710000  -1.3730000  -4.0180000  -9.0740000  -1.3380000  -3.5300000
  -7.5490000  -0.8600000  -3.3880000   7.2180000  -3.5230000  -2.1480000
   7.2190000  -3.7760000  -1.1570000   6.5470000  -2.7820000  -2.3880000
  -9.0390000  -2.2190000   3.8910000  -8.7990000  -1.5700000   4.6610000
  -9.9470000  -2.6530000   4.0220000   2.5850000  11.4690000  -9.2930000
   3.2510000  11.9390000  -8.6680000   2.5090000  12.1110000 -10.0180000
  -7.1270000  11.1050000  -4.2540000  -7.9130000  11.7520000  -4.4460000
  -7.2050000  10.4050000  -3.4640000   1.6010000  -2.0490000  12.9620000
   1.1220000  -1.9590000  12.1410000   1.1240000  -1.4730000  13.7070000
  -0.2220000   1.4240000  -5.0420000  -0.2280000   0.9000000  -4.1640000
   0.7610000   1.4260000  -5.3690000  -6.3860000  -9.7130000   8.6620000
  -5.8120000  -8.9260000   8.2390000  -7.2430000  -9.6480000   8.0930000
 -11.5220000   4.8500000  -0.6160000 -10.8060000   4.1350000  -0.5180000
 -11.7350000   5.3520000   0.2220000   6.4440000 -12.5200000   1.3680000
   7.3480000 -12.7120000   0.9460000   6.6700000 -11.9450000   2.1880000
   5.6040000   8.7200000  -0.2830000   6.6510000   8.7230000  -0.3710000
   5.1730000   9.6630000  -0.3860000  -1.2740000  -6.9380000  -2.2250000
  -2.0370000  -6.2410000  -2.2030000  -0.9880000  -7.0170000  -3.2180000
   0.8360000  -8.8120000  -2.3270000   0.9270000  -9.2840000  -1.4370000
   0.2150000  -8.0300000  -2.0740000  -0.6660000  -3.9640000  11.7840000
  -0.1260000  -3.2610000  11.2500000  -0.0750000  -4.7810000  11.8960000
  -6.0290000   7.8860000  -5.4720000  -5.3180000   8.1630000  -4.8280000
  -6.9800000   7.8600000  -5.1000000  -7.4720000   0.5230000  -6.2490000
  -7.1740000  -0.4070000  -6.5250000  -8.4960000   0.5640000  -6.0560000
  -2.1120000   8.1250000   8.7220000  -2.5110000   8.1610000   9.6460000
  -1.6640000   9.0160000   8.5320000 -11.7540000  -2.2360000  -6.0290000
 -10.8380000  -2.6440000  -6.2660000 -12.0990000  -1.5220000  -6.7070000
  -3.4130000  -5.0150000   2.3900000  -3.6850000  -5.2740000   3.3520000
  -2.4270000  -5.2910000   2.2350000  -2.9480000   5.0940000   2.1740000
  -2.4640000   4.2220000   2.4720000  -3.3090000   4.9920000   1.2080000
  -4.4230000   2.5160000 -11.6070000  -5.3830000   2.6690000 -11.3710000
  -4.1190000   1.6800000 -11.0980000   4.9500000   2.4280000   6.7280000
   5.1320000   2.5580000   7.6970000   4.8410000   3.3690000   6.4060000
  -2.7420000   0.1530000 -13.7360000  -3.2990000   1.0260000 -13.6860000
  -1.8580000   0.3680000 -13.2530000  -5.2860000  11.8410000   2.7900000
  -4.6500000  12.4830000   3.2700000  -5.8750000  11.4440000   3.4840000
  -0.2360000  -8.7900000  11.3250000  -1.0820000  -8.2100000  11.5690000
   0.4730000  -8.1380000  11.2580000  -4.6010000  -2.9460000  12.1260000
  -4.4460000  -2.5920000  13.0950000  -4.0470000  -2.3750000  11.4990000
  -8.2130000  -0.0460000  -9.6750000  -8.0870000   0.8410000  -9.1910000
  -7.4690000  -0.7480000 -10.0480000  -6.8040000  -2.0550000  -7.5190000
  -5.9570000  -2.5130000  -7.2370000  -6.6230000  -1.6920000  -8.4820000
   4.7960000  -1.3480000  10.7580000   4.5560000  -2.1590000  10.1730000
   5.4750000  -0.6950000  10.2850000   3.8420000   9.8870000   9.1800000
   4.5440000   9.1550000   8.8830000   2.9360000   9.8330000   8.6190000
  10.9320000   4.4090000  -0.7240000  11.7990000   3.9040000  -0.4870000
  10.3080000   3.6370000  -1.0840000   4.8880000  -3.0950000 -11.7670000
   4.3670000  -3.5960000 -12.4620000   4.8890000  -2.1200000 -12.0100000
  -5.0710000  -7.5840000   7.5870000  -4.1740000  -7.0830000   7.9050000
  -5.0450000  -7.5810000   6.5590000   2.7530000  -5.5110000   3.0110000
   2.4870000  -5.2290000   3.9660000   3.2340000  -6.4100000   3.0390000
  -3.4350000   4.5450000  -8.3880000  -4.2470000   4.9470000  -7.9520000
  -3.4940000   3.5530000  -8.0560000   9.1630000   0.1190000   9.8190000
   9.8030000   0.9310000   9.6550000   8.1950000   0.3400000   9.6180000
  -7.2040000  -0.5830000  -1.3400000  -6.7450000  -0.0080000  -1.9990000
  -7.3600000  -0.3130000  -0.3670000  -0.4510000   0.7090000 -12.1840000
  -0.9940000   0.9650000 -11.3720000   0.3280000   0.0120000 -11.8620000
  -4.5230000  -5.6750000   4.8230000  -5.1110000  -5.0490000   5.3560000
  -5.1500000  -6.3930000   4.4320000   9.7620000   0.9090000  -0.9490000
   9.3480000   1.8490000  -1.2330000  10.0220000   0.5260000  -1.8750000
  -5.5280000   5.9160000   9.3770000  -5.6880000   5.2330000  10.1120000
  -5.5330000   5.4380000   8.4350000   8.3500000   2.5290000  -4.4060000
   8.8880000   1.8990000  -5.0510000   8.4100000   3.4930000  -4.7710000
   2.8360000   6.5400000   7.2620000   2.1590000   5.9430000   7.6630000
   2.4980000   7.5130000   7.2850000   3.3450000  -9.7280000   8.5400000
   3.2460000  -8.7860000   8.1050000   2.4270000  -9.9500000   9.0460000
   4.9580000  -8.2500000  -3.9040000   5.1150000  -9.1210000  -3.3110000
   5.8960000  -7.9870000  -4.2600000   5.0300000  -7.9440000   2.3000000
   4.4090000  -8.0690000   1.5230000   5.0820000  -8.8260000   2.8420000
   2.3550000  -5.2020000  13.1330000   2.2390000  -4.1980000  12.9900000
   3.2960000  -5.2840000  13.4850000  -6.5460000 -11.9250000  -1.4980000
  -5.8000000 -11.9280000  -2.2580000  -6.9260000 -11.0130000  -1.5390000
   2.2060000  -4.9080000   5.6360000   3.2430000  -4.9220000   5.6280000
   1.9020000  -4.4550000   6.5010000  -2.3650000  -7.2670000  11.8650000
  -3.1920000  -7.3470000  11.2450000  -2.7420000  -6.9880000  12.7660000
   4.8030000 -10.7640000   3.6440000   4.7250000 -11.7340000   3.9490000
   5.8080000 -10.5680000   3.7340000  -2.0460000  11.8060000  -1.1790000
  -2.2920000  10.8330000  -1.0600000  -2.7460000  12.4980000  -0.8020000
  -2.9210000   1.1390000  -4.7650000  -2.9880000   0.5130000  -3.9540000
  -1.9240000   1.3330000  -4.9620000   9.0140000  11.5190000  -0.1160000
   9.9870000  11.6910000   0.0580000   8.8690000  10.5510000  -0.1500000
  -5.6010000  -6.5060000   1.5100000  -4.5700000  -6.1900000   1.6470000
  -6.0120000  -5.6640000   1.1510000  -3.3480000   1.3620000   5.0390000
  -2.6580000   1.1880000   5.7920000  -4.2350000   1.6310000   5.4680000
  -2.7690000  -7.0040000 -10.1900000  -3.1850000  -7.1890000 -11.1550000
  -1.8580000  -7.3700000 -10.1070000  -0.8290000 -13.1150000   3.3790000
  -1.3550000 -13.9600000   3.6910000   0.1660000 -13.2830000   3.2800000
  -8.0350000  10.3200000  -0.1390000  -8.7950000  10.9600000  -0.1150000
  -8.0990000   9.7110000  -0.9150000  -7.5160000  -3.0960000  -0.6650000
  -7.4940000  -2.0700000  -0.9170000  -6.5240000  -3.3260000  -0.8970000
   4.2510000   1.1490000   0.7790000   3.7550000   0.9570000  -0.0950000
   4.9340000   0.3990000   0.9420000   3.4100000  -7.4990000  -1.8600000
   4.0410000  -7.8320000  -2.5860000   2.4800000  -7.9050000  -2.2110000
  -4.0550000  -4.8820000  -5.0900000  -4.8530000  -4.2620000  -4.9030000
  -3.8530000  -5.3820000  -4.2130000   1.4110000   9.1730000   6.7750000
   1.0030000   9.4270000   7.6960000   0.7050000   9.4600000   6.0740000
  -9.0690000  -8.4830000  -3.2990000  -9.4220000  -9.1930000  -4.0000000
  -9.7380000  -7.7150000  -3.0410000   9.0340000  -5.4490000  -6.0890000
   8.9760000  -5.3380000  -7.1360000   9.9570000  -5.7490000  -5.8700000
   1.1580000  -2.4820000 -14.0490000   0.8080000  -2.5870000 -13.0830000
   2.1250000  -2.8780000 -14.2270000  -4.3260000   6.2130000  -2.8890000
  -4.5380000   7.1720000  -3.0780000  -4.0250000   5.8250000  -3.7320000
  -7.3300000   1.2970000   3.3050000  -8.0030000   1.9470000   2.9020000
  -6.6910000   1.8420000   3.9130000  -4.9350000  -3.0860000  -1.9970000
  -4.4770000  -2.1630000  -1.9360000  -5.3750000  -3.1030000  -2.9330000
   2.0660000  -6.7790000  -6.3250000   2.7220000  -6.2130000  -5.7900000
   2.4060000  -7.7660000  -6.3380000  -0.5020000  -6.9450000  -4.9100000
   0.4130000  -7.0850000  -5.3570000  -0.8740000  -6.0460000  -5.2550000
   9.4380000  -2.6820000  -3.3150000  10.0100000  -3.5220000  -3.2210000
   8.7660000  -2.8410000  -2.5420000   6.5580000   0.8260000   9.6590000
   6.7680000   0.9940000  10.6540000   6.4060000   1.7820000   9.2850000
   7.8560000   8.4130000  -8.7140000   7.8640000   8.3230000  -7.7050000
   6.9190000   8.6760000  -9.1280000  -1.6750000  11.8820000  -3.9440000
  -2.6030000  11.4040000  -3.9930000  -1.3940000  11.9010000  -2.9940000
  -3.8560000   5.1540000 -11.0780000  -3.8070000   5.1370000 -10.0400000
  -3.8080000   4.2150000 -11.4130000   9.7940000  -6.3760000   2.7460000
  10.7150000  -6.3200000   2.4300000   9.2440000  -6.9450000   2.0440000
 -11.4430000  -4.4670000   1.0890000 -12.4390000  -4.3800000   0.8110000
 -11.1880000  -5.3410000   1.5650000   0.8930000  13.5900000  -6.1610000
   1.0380000  14.1260000  -7.0230000   0.0340000  13.9360000  -5.7870000
  -8.7250000  -1.1480000   6.4580000  -8.3660000  -2.1150000   6.5950000
  -9.7400000  -1.1020000   6.7030000  -6.5710000 -11.1050000  -4.9790000
  -6.2920000 -11.7450000  -5.7500000  -5.7820000 -11.0150000  -4.3840000
   5.1760000  -3.5070000   1.0950000   5.0390000  -4.2010000   1.8420000
   4.3490000  -3.4920000   0.4740000   2.7720000  -9.2820000   4.9140000
   3.6860000  -9.4210000   4.5260000   2.5460000 -10.1820000   5.4510000
  -1.2330000  14.4890000  -4.6610000  -1.6060000  13.5920000  -4.3380000
  -2.1420000  14.8670000  -4.9470000  -3.7650000   2.0150000  -7.5300000
  -4.4140000   1.3620000  -8.0230000  -3.6650000   1.8260000  -6.5730000
  -4.0890000  -0.4640000  -2.3050000  -4.1160000  -0.0930000  -1.3430000
  -4.8610000  -0.0540000  -2.8490000   2.7220000   0.8260000   7.2760000
   2.6280000   0.4830000   8.2470000   3.6880000   1.1290000   7.1050000
   3.2310000   1.7580000   3.2160000   3.3780000   1.5310000   2.2190000
   4.0880000   1.4200000   3.6740000   1.3660000   8.0880000  -0.2990000
   2.2790000   7.5980000  -0.2880000   0.9930000   8.0000000  -1.2540000
  -1.4360000  -4.5210000  -5.8770000  -1.2900000  -3.4990000  -5.9480000
  -2.4330000  -4.6760000  -5.6450000   5.4770000  -6.8950000 -11.0740000
   6.0320000  -5.9990000 -10.9700000   4.4780000  -6.6270000 -11.0840000
   3.3840000   4.9490000 -10.4960000   3.0120000   4.1600000 -11.0190000
   2.6090000   5.2200000  -9.8740000   9.7660000   2.5430000   2.3780000
  10.1400000   2.3230000   1.4740000   8.7760000   2.4300000   2.2010000
   1.6290000   5.3160000  -8.0840000   0.5930000   5.4310000  -8.2890000
   1.9450000   4.3300000  -8.2390000   2.6360000  12.8560000   3.3940000
   2.0460000  13.6780000   3.5280000   2.8000000  12.6690000   2.4230000
  -3.6310000  12.7080000   5.4300000  -3.3950000  11.6870000   5.6750000
  -4.3860000  13.0690000   6.0500000   7.8590000  -9.2300000  -2.5380000
   7.7770000  -8.2540000  -2.1930000   6.9890000  -9.8090000  -2.4510000
   9.8540000   5.7640000  -3.0870000   8.8470000   5.8030000  -3.1300000
  10.1910000   5.6300000  -2.0870000  -5.8570000  -6.4030000  -9.8980000
  -6.7920000  -6.7380000  -9.6900000  -5.2900000  -6.5840000  -9.0560000
  -9.1070000  -4.9690000  -2.9610000  -8.1410000  -5.2690000  -2.9890000
  -9.2610000  -4.4080000  -3.7550000  10.9900000  -0.9620000   0.7520000
  10.4600000  -0.4680000   0.0950000  10.8870000  -1.9990000   0.6130000
   0.0780000   2.5740000  -7.7500000  -0.2360000   2.6390000  -6.7890000
   1.1260000   2.5040000  -7.7520000  -8.2400000  -9.8820000   2.4890000
  -7.3000000 -10.3000000   2.4430000  -8.8750000 -10.6610000   2.2550000
  -1.3030000  -1.8000000  -6.2500000  -0.9140000  -1.2290000  -7.0310000
  -1.7860000  -1.1590000  -5.6230000  -7.9470000   1.1110000   9.2660000
  -7.0160000   1.2580000   9.5640000  -8.0480000   1.3970000   8.2730000
   5.5670000   6.5050000  -5.6590000   6.0000000   6.2910000  -4.8130000
   4.6660000   5.9940000  -5.5360000   3.8390000  -5.3070000  -4.8240000
   3.8720000  -5.1570000  -3.8500000   4.4520000  -4.7170000  -5.2840000
  -2.3880000  -3.2060000   7.7950000  -2.7230000  -3.5690000   8.6720000
  -2.5690000  -2.2160000   8.0120000  -1.0260000  11.2990000  -9.2940000
  -1.0760000  10.2550000  -9.3640000  -0.0180000  11.5450000  -9.3660000
  -5.0600000   1.9910000   8.0810000  -5.5750000   2.2890000   7.1960000
  -5.1840000   1.0010000   8.0930000  -9.6930000  -5.9070000  -6.9930000
 -10.6030000  -6.1680000  -6.5720000  -9.6620000  -4.8800000  -7.0580000
   4.6600000  -5.2150000  -2.1810000   4.3400000  -6.1730000  -1.9150000
   5.4740000  -5.2960000  -2.7740000  -2.1960000  10.8620000   8.4490000
  -2.1220000  11.9230000   8.5840000  -2.5400000  10.6770000   7.4850000
  -1.7520000 -10.4930000   3.0180000  -1.3570000 -11.4310000   3.2140000
  -0.9810000  -9.8300000   3.2690000  -2.9430000   3.4200000   8.7680000
  -2.6180000   3.2180000   7.8320000  -3.9050000   2.9580000   8.8080000
  -4.4150000 -11.7410000  -3.0730000  -3.4940000 -11.2530000  -3.1210000
  -4.3610000 -12.7240000  -3.5090000   9.4100000   6.9860000  -5.5280000
   8.4470000   7.5100000  -5.4340000   9.7950000   6.7530000  -4.5720000
  -7.2050000   2.8050000 -11.0480000  -7.2350000   2.6050000 -10.0160000
  -8.1550000   3.1380000 -11.2060000  -4.5810000  -6.6260000  -7.6160000
  -3.7290000  -7.0770000  -7.2910000  -4.6560000  -5.8180000  -6.9760000
   1.1060000   6.1370000  -5.3160000   0.8940000   5.6490000  -6.1910000
   1.8200000   6.8250000  -5.5900000   6.4830000   4.6970000  -0.9010000
   5.6390000   4.3950000  -0.3660000   6.9860000   5.3780000  -0.2840000
  -3.7120000  -2.6220000  -7.9300000  -3.6750000  -3.4670000  -8.4870000
  -2.8750000  -2.5990000  -7.3390000  -4.3700000   8.7900000  -2.9950000
  -3.6160000   8.3700000  -2.4240000  -4.1620000   9.7710000  -3.1300000
  -3.5630000  -8.4750000  -3.5340000  -3.3390000  -7.8230000  -2.7470000
  -4.4750000  -8.8040000  -3.6330000   1.0980000   4.6410000   8.3880000
   0.1570000   4.9670000   8.5490000   1.6410000   4.9030000   9.2320000
   6.3210000  -1.0000000   1.2780000   5.8410000  -1.9060000   1.1350000
   6.9520000  -1.1620000   2.0820000  -0.4790000   4.1820000 -11.7210000
  -0.8960000   5.1030000 -11.6490000  -0.9280000   3.4780000 -11.1040000
   6.4550000   6.4040000  10.0290000   5.9510000   6.8740000   9.2470000
   5.7810000   6.4000000  10.8070000   2.3820000 -11.4690000   1.7170000
   2.9060000 -10.9890000   2.4560000   2.4790000 -12.4730000   1.8920000
   9.5090000   6.1480000   0.8940000  10.2000000   5.4880000   0.5340000
   8.7410000   5.6510000   1.3200000   3.6700000  13.3130000  -5.1580000
   2.6490000  13.3420000  -5.2960000   3.9840000  12.8990000  -6.0450000
  -8.4080000   1.8420000   6.7270000  -8.3210000   0.9230000   6.2980000
  -9.2690000   2.2390000   6.3930000  -7.8460000  -9.8910000   6.4210000
  -8.5590000  -9.3160000   5.9630000  -6.9790000  -9.8700000   5.7770000
   4.8930000   0.4150000  -8.7330000   5.4170000   1.2760000  -8.7780000
   5.5610000  -0.2810000  -8.3530000   3.6970000 -10.2280000  -8.3360000
   3.2940000 -10.0050000  -7.4020000   4.2560000  -9.3710000  -8.3850000
  -8.5040000  -4.9200000   1.1180000  -9.4330000  -4.8850000   0.8010000
  -8.0090000  -4.3370000   0.4580000  -7.3690000  -4.2950000 -10.5770000
  -6.8550000  -5.0070000 -10.0460000  -7.5590000  -4.5600000 -11.5410000
  -6.1790000  -9.0360000  -7.6530000  -6.0230000  -9.5740000  -6.8120000
  -5.8020000  -8.1510000  -7.5940000  -0.2480000  -1.5860000   6.9040000
   0.6560000  -1.8410000   6.4980000  -0.8100000  -2.4130000   7.1420000
  -3.5370000  14.2490000  -0.2740000  -4.1780000  13.9480000  -0.9600000
  -3.9510000  15.0780000   0.0590000   0.5110000   7.7710000  -2.9780000
   0.4970000   6.9610000  -3.6090000   1.1840000   8.4160000  -3.4250000
   1.7320000  -1.4910000  -5.4280000   2.0570000  -2.0570000  -6.2390000
   0.7130000  -1.5610000  -5.4530000  -1.7760000   2.2110000  -9.9100000
  -2.5020000   1.7580000  -9.3680000  -1.2180000   2.6550000  -9.1550000
  -8.8480000  -8.0090000   0.7780000  -8.5910000  -8.5950000   1.5930000
  -8.8340000  -7.1040000   1.2490000  -6.0120000 -10.8110000   1.1840000
  -5.2240000 -10.2840000   1.5460000  -6.1030000 -10.6630000   0.2060000
  -4.1610000   3.2740000  12.2180000  -3.1430000   3.1630000  12.0590000
  -4.5860000   2.3820000  12.1710000  -1.2430000   9.0570000  -6.1550000
  -0.7520000   8.3070000  -5.7970000  -0.5720000   9.8570000  -6.3830000
   9.7100000  -6.7350000   7.8180000   9.5830000  -5.7210000   7.9830000
   9.3650000  -7.3900000   8.4790000   3.1610000  -3.4930000  -0.8270000
   3.7230000  -4.2070000  -1.3350000   2.9780000  -2.7660000  -1.5310000
  -0.0440000  -6.1580000   4.7760000   0.8260000  -5.7040000   5.1020000
  -0.8530000  -5.5810000   5.1030000  -8.4670000  -7.1940000  -8.8460000
  -8.2720000  -8.1560000  -8.5210000  -8.9340000  -6.7360000  -7.9840000
