coordinates Written by CommBox::Input
1212
  -0.4309977   3.4620002  -2.2599964   0.1239889   3.8719861  -3.0979764
  -1.3089780   4.0719837  -2.0690014  -0.7459907   2.4500199  -2.5109961
   0.9179990   4.8419972  -0.6170012   1.4879845   4.7869966   0.3049755
   1.5459832   5.2459830  -1.4029794   0.0510212   5.4759770  -0.4710040
   0.4620006   3.4500005  -1.0189967  -0.2609963   2.9079914   0.0809920
   1.6349920   2.6719895  -1.2709975  -1.4609939   1.1880114   0.8239966
   2.5429884   0.6870066  -1.5359959  -0.4470059   1.5780025   0.0680065
   1.5660097   1.3320051  -1.1890028   0.3810021   0.7400037  -0.6030024
   0.2239933  -0.7420015  -0.7560039   1.2109724  -1.1339997  -1.0280045
  -0.6559931  -1.1219817  -1.9450095  -0.7849992  -0.4620124  -2.9579823
  -1.2570021  -2.4030072  -1.5999930  -1.8009769  -2.9949792  -2.3139827
  -1.0429991  -2.6819887  -0.3120083  -1.3549905  -3.5779855   0.1939798
  -0.3319898  -1.5720018   0.4130128  -1.1190242  -0.9660153   0.8969521
   0.6230003  -2.0510037   1.4069971  -0.0589963  -2.4609925   2.6309929
  -0.9649815  -2.9899842   2.3360141   0.5849832  -3.1779796   3.1429845
  -0.4290005  -1.3220024   3.5879998  -1.2109813  -1.6499833   4.2659834
  -0.7899987  -0.4600212   3.0320112   0.4249788  -1.0000096   4.1739831
   1.7579892  -1.1740037   1.6489995   2.2650025  -1.0000033   0.6970260
   1.4520273  -0.1890030   2.0400033   2.7629981  -1.8139992   2.5979982
   2.4100077  -1.8089995   3.6219718   2.9389907  -2.8399728   2.2950039
   3.7019813  -1.2670113   2.5560015  -1.8119652   1.9578873   1.3109454
  -3.3540004  -0.1780000   2.8019995  -2.3469879  -0.2310000   2.6520039
  -3.4879958   0.3839993   3.6640001   7.4379989 -10.6730006   3.9540023
   7.8019924 -11.3989661   4.5369614   8.2550059 -10.2990119   3.4669986
  -1.2359934   6.7030005 -11.3919939  -0.9189744   7.1300288 -12.2940494
  -2.2230928   6.2729481 -11.5170134 -10.4670001   0.0510013   0.9779996
 -10.1879958  -0.7619975   0.4150112 -10.4390061  -0.2870102   1.9380025
   2.0119998  -7.1460062  11.0610010   2.0299938  -6.4379579  11.8300169
   2.0720159  -6.5939369  10.1509423   2.4089997   1.2409999  -5.6529997
   2.9950008   1.6180003  -4.8829983   2.3800019   0.2089997  -5.6159993
   9.2349935  -4.0680039   9.9010013   8.4210236  -3.9259998   9.3250090
  10.0030768  -3.3999311   9.6059603   3.7360005  -5.8220040  -9.0359961
   3.6309945  -6.4149555  -8.2490551   4.2900078  -4.9649895  -8.8399966
  -5.5130020  13.4680018  -2.3110017  -5.8160211  12.7079884  -1.6699998
  -6.2819566  14.0489601  -2.5249790   8.6660006  -3.4560001   6.5739993
   9.2209699  -2.6210239   6.5099842   8.6300112  -3.7869578   5.6180221
   5.9579973   6.1160001 -10.4529987   6.7390438   6.0399975 -11.1310279
   5.1330004   5.5290011 -10.6179928  -1.2379979  -9.9239978  -8.3810035
  -0.8870047  -9.0959903  -8.8889724  -1.7640111  -9.6289938  -7.5389890
   5.1650081   9.6170052  -7.2950024   5.8029606   9.6880078  -6.5180158
   4.5079092   8.7818995  -7.0589577  11.7929994   4.1960006  -4.0890002
  11.0359986   4.8369903  -3.8179940  11.8199891   3.4530061  -3.3869952
  -4.1999998   2.6079995  -1.1600001  -4.3299990   1.8520027  -0.4709983
  -4.1649986   3.5300013  -0.6929980  -5.8189997   7.2180009   0.1880034
  -6.5070257   6.7270099  -0.4020029  -6.3289826   7.7509614   0.8489440
   6.8459984   6.2410021  -3.2600031   6.7189937   5.5920165  -2.4669799
   6.3450186   7.0259555  -2.8619733  -5.6690014  11.7039972  -0.3079982
  -6.4469543  11.0910458  -0.4269999  -5.7570165  12.0929922   0.6159569
   0.9700005  -2.3449991 -11.1749973   0.3330078  -2.9799925 -10.6850066
   1.5129916  -1.7770185 -10.5460197 -13.1679979   0.2609986   1.1270001
 -13.2409909   1.0390053   0.4579946 -12.2270203  -0.0929942   1.0170036
  -1.1939960  14.5010040   0.8619985  -2.1600533  14.2319828   0.5179876
  -0.9720275  15.3459418   0.4110298  -9.0880025  -5.8299993   4.3170003
  -8.8039878  -4.9999858   3.7879963  -8.2799738  -6.4870193   4.2660015
  -7.3879950   8.9050001  -2.4589992  -7.8580418   8.1089681  -2.9490102
  -6.4440357   8.7050165  -2.1519933   3.4339981  10.8889997   5.2010006
   3.0880039  11.5029902   4.4489918   2.7420219  10.4020066   5.7499931
   7.2159968  10.0679986  -3.2559979   6.3920375   9.6610193  -2.8580209
   8.0370022   9.9969981  -2.6540098   0.6119999   2.2150004   4.1030001
   1.5409987   1.9579942   3.7409967   0.6840005   2.3779968   5.1149971
  -7.2620013  -3.8789983   9.6159985  -6.9189960  -4.8190291   9.9119979
  -7.5359864  -3.9679931   8.6390344   1.0000004 -10.1189958  -4.6030012
   0.8239904 -11.0570401  -4.1479634   0.8840001  -9.4119860  -3.8520015
  -2.0300039   5.9370013   4.6890011  -2.5389829   5.9320113   3.8210443
  -2.4509749   6.6329680   5.2769522 -11.0729991  -8.1649969  -0.7250032
 -11.2649885  -9.1450284  -0.4759703 -10.2910145  -7.9640084  -0.0849864
  -7.1929983   9.1010026   2.2450021  -6.9400085   9.6689720   3.0479908
  -7.3880019   9.6189805   1.3749848   4.2219996 -11.7400015  -0.3840010
   3.4389513 -11.2919633   0.1520138   5.1220391 -11.8689886   0.1139846
   5.5559977 -10.7400018  -2.5489942   5.3220442 -10.9749660  -1.6190756
   5.1459962 -11.4510068  -3.1640059  -7.5630008   2.5089923  -8.2140013
  -7.4139949   1.9969934  -7.3139660  -7.4219879   3.5671330  -8.0799929
  -0.2080002  11.7369990   0.9079986  -0.8049989  11.5690031   0.1000270
  -0.5680114  12.6319877   1.2519967   7.2129965  -8.0849975  -5.3149963
   7.8040398  -8.5710218  -6.0250502   7.2279997  -7.0860247  -5.4580009
  -6.2099994   0.6699998  -3.6739997  -5.7570005   1.5990012  -3.6869999
  -6.7100010   0.5850004  -4.5750008  -9.4119978  -3.0220015  10.9540028
  -9.9360304  -2.2209589  10.5609744  -8.7549897  -3.4420203  10.2519511
  -6.2770030  -1.5029998 -10.5689914  -5.9299533  -1.3829861 -11.5861208
  -6.6719923  -2.4429740 -10.4659935   2.7149998  -7.7039996   0.7069997
   3.0300004  -7.6899992  -0.2789976   2.1430009  -6.8559980   0.8210024
   4.2190023  -2.3019989  13.4259995   3.1769657  -2.3160109  13.3289899
   4.5799877  -1.9900118  12.5300102  -5.5620005  -5.5830013  12.8610048
  -5.8150013  -5.9140063  11.8919342  -5.2669830  -4.5959703  12.7289872
   8.3089949   8.1609985  -0.4789961   8.7850091   7.4210000   0.0689862
   9.0390739   8.4440047  -1.2060531  -6.2429981  -8.4249985  -4.3160006
  -7.1470061  -8.1990038  -3.8889874  -6.3319928  -9.3960027  -4.6419961
  -5.2769968   6.7940007  -7.9300012  -4.5210404   7.4669771  -8.0119881
  -5.6559972   7.0630043  -7.0059929  -5.1370075   5.0559994   6.9530000
  -4.5759673   4.4349821   6.3399785  -6.1099018   5.0450119   6.7960345
  10.5099928  -3.6739977   0.5590036  11.2641121  -4.3850659   0.2689639
   9.5080024  -3.9019712   0.5700099  -2.7720015  -4.3819994  10.2579991
  -3.6119642  -4.4640033  10.8029831  -1.9929945  -4.3340082  10.9600245
  -0.0029974 -11.7370004   5.8939958  -0.5979455 -12.0259817   5.1670527
  -0.4860093 -11.0979888   6.5780169  -7.0910010   8.0669991   7.8659970
  -6.5739970   7.3599895   8.3959831  -7.2529818   7.6700167   6.9670555
   5.0459958  -0.2629985 -11.5479995   5.0369872   0.0899912 -10.6030368
   4.1350842  -0.1670144 -11.8749591   7.0390012  -5.1179983  -4.3320003
   7.8009721  -5.0489829  -4.9929587   7.2390081  -4.3930313  -3.6610432
  -8.9069934   3.3940022   2.1839999  -9.4200309   3.3059940   1.2920095
  -9.6490424   2.9629840   2.7849882   3.7429997   6.7819995  -0.4020000
   3.9890002   5.8539997  -0.0409997   4.5099999   7.4579990  -0.2289998
  13.1570045  -4.3599999   3.8600068  12.2329352  -3.9339710   3.5269771
  13.3439785  -4.0980223   4.7719144   8.1579981   1.0700014   5.1829983
   8.3949966   1.9949924   5.5830049   8.9940019   0.6479970   4.7549992
   4.3209998   4.1310000   0.7349997   4.3059982   3.1049968   0.7200012
   4.0749987   4.4389976   1.6870015  -0.9069995   5.5009980  -8.8869990
  -1.1520135   6.0940229  -9.7120292  -1.7709978   5.1669977  -8.4279796
   0.7300007 -11.6279998  -7.0139979   0.2750125 -11.0189784  -7.6979833
   0.9689926 -10.9910034  -6.2800420  -1.3219989   5.7020051   9.2150014
  -1.4629855   6.6189656   8.7969954  -2.1140416   5.0939818   8.8739623
 -10.3469983  -0.9280021  -2.5570032 -11.0530108  -0.1749442  -2.3469900
 -10.2319802  -1.5330180  -1.7019564  -3.1160008  -0.6690018   8.6660013
  -3.8660278  -0.6479933   7.9429865  -2.3759634   0.0300288   8.4189980
  -1.3970001   0.8080001   7.0109998  -0.9739983  -0.1400014   6.9239968
  -0.6079992   1.4699984   7.0259978   2.7580014  12.4490016   0.6199989
   1.8040059  12.0820043   0.5309999   2.7189971  13.4419500   0.5490165
   1.4709994  -5.1800002   0.7349991   1.9790012  -5.1519926   1.6440049
   1.9140044  -4.4979956   0.1020084   1.7189983   0.3530007  -9.9280004
   1.6329845   1.2230031 -10.4730065   2.5580311   0.3389865  -9.3089689
  -6.8520008   4.8389974   1.5430002  -7.7639875   4.4270411   1.7679978
  -6.8340012   5.0500150   0.5360055   5.4560017   9.0610005   4.9709948
   4.6499639   9.7310076   4.9500143   5.9639965   8.9279699   4.1070507
  -2.2119999  -7.6909993   0.4659998  -1.9059993  -7.4960018  -0.4939995
  -1.6909994  -7.0720012   1.1060021  -2.0910001  -4.8629999   5.7289997
  -3.0189976  -5.2009980   5.4319999  -2.2199982  -4.2189983   6.5349982
  -2.0960042 -10.5759988  -0.0379995  -2.3259763  -9.7600304   0.5079913
  -1.0569730 -10.5429896  -0.0300009   4.4490001  13.4289982  -2.6540021
   4.7179995  12.5530067  -2.2089959   4.1239929  13.3010019  -3.6269853
   8.2260007  -4.7040032   3.9419986   8.8529651  -5.3939900   3.5090020
   7.3320254  -4.9139900   3.4899954   2.5740001  -1.6839999   6.2770002
   2.4949984  -0.6890019   6.5529955   3.4869963  -1.7949994   5.8089963
  -3.9280012  -9.1639997   2.2400002  -3.0209631  -9.5880140   2.5870190
  -3.7480069  -8.4649703   1.4849673   1.4869963  -6.1780034 -10.4320031
   2.2970696  -6.0219759  -9.7269194   0.8809943  -5.3309611 -10.3890046
   4.8929981   8.2440020  -3.1540058   4.4619818   7.9889853  -2.2369537
   4.2450501   8.7649688  -3.6919630  -1.4519997   2.9019998  11.2460025
  -0.6269248   3.4810286  10.9449971  -2.1730569   2.6729489  10.4989646
  -4.5960000  -2.5790000   3.3089994  -4.1389965  -1.6809989   3.0800029
  -4.1039977  -3.3499987   2.8380038  -6.1240000   2.7239985   5.6080010
  -5.7929722   3.5490247   5.0439919  -7.1310397   2.8040026   5.8800010
   9.8759970   9.6840002  -2.0819991  10.0699994   9.9260055  -3.0680275
  10.7350243   9.6649955  -1.5059678  -9.8899934   2.7520021  -3.1680005
 -10.3000390   2.1579765  -3.9340230  -8.9180808   2.9289915  -3.2349720
   6.7520023  11.9499927   1.1329984   7.5519657  11.9470317   0.4990176
   6.7080130  12.9770795   1.3489985   0.1140000   9.0919993   1.8739998
   0.0079999  10.0890012   1.6279998   0.6749998   8.6839998   1.0970009
   6.9480005  -6.4040028   9.8139920   7.8370026  -6.7569882  10.1750333
   6.5369857  -6.0099670  10.7010865  -3.0930020  12.6010035  -8.1949984
  -2.2929256  12.1049592  -8.7240534  -3.7750433  11.9009540  -7.7629597
   7.9130018  -1.8639915   3.4379989   8.7549624  -1.4710349   3.8279886
   7.9480053  -2.9150955   3.6660311   6.1679914   8.3539999   7.5899983
   5.7979972   8.5349878   6.6440088   7.2421434   8.4570054   7.6010045
   2.9959983   7.5070000  -6.8850005   2.4300123   8.1790094  -7.4149676
   3.1430224   6.6079581  -7.3980101   8.2469978  -9.0310019   8.8569997
   7.7629948  -8.8499810   7.9559801   7.9740216  -9.8379837   9.3950089
  -6.1729978  -1.1539995   9.2890008  -7.0550200  -0.6359809   9.1019738
  -6.3819959  -2.1410228   9.5459935   6.4640059  -2.9280052   8.1239964
   6.2969813  -1.9069467   7.9359832   7.1829189  -3.1159533   7.4760561
   4.9200027  -3.3979981  -8.8729948   5.6699605  -2.8080397  -8.5530209
   4.8089975  -3.1409775  -9.8890420   5.2389968  -8.0780033  -8.4959941
   5.3000345  -7.5959512  -9.4480610   6.2040004  -8.0559827  -8.2080192
  -2.7459923  10.0530008   5.8319958  -3.1140179   9.0799611   5.7679950
  -1.8430877  10.0800024   5.4220532  -4.8239975  10.8170013  -7.3230027
  -5.4620331  10.6979930  -6.5129564  -4.3429990   9.9189856  -7.5179995
  -1.8980027  -0.7100016  13.0939940  -1.8320010  -1.6881158  13.5270280
  -1.6309556   0.1811438  13.6620620   4.6490024  11.1099983  -0.6240010
   3.7269879  11.4600042  -0.2829743   5.1839520  11.4249910   0.1779944
  -2.3290000  -9.1090012  -5.9810012  -3.1010199  -8.9159970  -5.3199977
  -1.5299804  -8.5499809  -5.6209863  -9.6329976  -6.8919995   7.6920007
  -9.3890012  -7.5570052   6.9639889 -10.6550291  -6.8170007   7.7639929
   2.4079876 -11.6689975   6.0320013   1.3940815 -11.6849950   6.0949951
   2.7710201 -12.6290303   6.1129851   3.2729999   4.5129999   3.4329998
   3.1069989   3.4959970   3.4049990   2.3569990   5.0009979   3.4589997
  -1.7029999   7.2459997   0.7499998  -1.1000001   7.8829992   1.2900006
  -2.0250002   6.4759974   1.3490014  -7.8699981   7.1220045  -9.2510028
  -6.8800141   7.1259856  -9.0069943  -8.2570145   6.2869361  -8.7619543
  -5.1090026   8.2619994   4.5400012  -4.5709878   8.3840078   3.6349598
  -4.5009837   7.8389910   5.2820259   7.6659935  -1.6929958  -5.6030009
   8.4640519  -2.2690478  -5.2149701   6.9590393  -1.8320177  -4.8910215
  -9.7959981   6.3700094  -2.2079998 -10.0839532   7.2659065  -1.9940412
 -10.4460619   5.6149189  -1.7939730  10.7009956  -4.9499993  -3.0350016
  11.0220059  -5.3339918  -3.9129879  11.5510318  -4.7849978  -2.4709896
  -6.3059957  -6.4309997  10.2349985  -5.6110048  -6.9109829   9.6730170
  -7.2450565  -6.8850146  10.1499966   8.4089987  -6.6839987  -1.6180007
   7.9739970  -6.0760099  -2.3099887   9.4350207  -6.6690081  -1.7029889
  -5.4069996   4.6120007   3.7379988  -4.4870251   4.5629913   3.3160000
  -6.0109870   4.7339969   2.9090054  10.8579965  -3.2639976   3.0709974
  10.7290107  -3.1979966   2.0560102  10.2950145  -2.6270351   3.6019954
  -4.5509995   0.3299997   0.3819996  -3.9689992   0.2120026   1.2270042
  -5.4550020  -0.0849992   0.6650028  -3.5359970 -10.6339940   8.3080029
  -3.6040360 -11.6320449   8.0279689  -4.5169953 -10.4030374   8.1529688
   4.9010033  -4.7350016   5.3930017   4.9919840  -3.7400175   5.5999935
   5.5119680  -5.2929688   5.9709496  -3.4619922 -10.4650004 -10.4139978
  -2.8010350 -10.3190102  -9.6860435  -4.4670979 -10.1339666 -10.1929696
   8.6260009   3.5179983   6.2810004   8.2489853   4.2920224   5.6930146
   8.3739910   3.8080026   7.2109783  12.4170026   0.2690040   2.8560048
  12.0199665  -0.2730390   2.0179249  12.3219950   1.2489794   2.6449925
   7.2359997   0.8270036  -0.5140035   8.2780221   0.7239819  -0.4469695
   6.9180087   0.0199757   0.0780223   2.3130009  -3.0310033  -7.5680018
   3.2189541  -3.3909844  -7.7859745   1.5940159  -3.4849711  -8.1089926
   2.8159986   2.7400010  -7.9160017   2.8920294   2.2729949  -6.9909905
   3.7740005   2.6129872  -8.2289722  -8.0720038  -4.2209937   7.0540112
  -7.3088861  -4.1440148   6.2528711  -8.5870402  -5.1260976   6.7779455
  -3.4569978   7.2959994   6.4700007  -3.2180255   7.7109853   7.3679708
  -4.0179934   6.4770097   6.7500051   3.5710081  -7.5219998   7.0859989
   3.2900160  -7.9089796   6.1940214   4.5288730  -7.3510332   7.0619903
   2.6269956  15.6369973  -2.6849976   3.1480066  14.7759938  -2.4629953
   3.2550525  16.2010357  -3.3020417   1.7129957  -6.0139985   8.6050027
   1.9230249  -5.0100115   8.5459863   2.4730390  -6.4459924   8.0169671
   7.5960013  -8.4919974   6.2270015   8.4949786  -8.3950124   5.7489895
   7.1189919  -9.3090210   5.8169812  -6.5400007  -3.2080008   5.0139999
  -5.6769810  -2.8989803   4.4979991  -7.3279950  -2.8239910   4.4840057
 -10.5050014   0.6630015  -5.0160094 -10.5220061   0.1829591  -4.0398724
 -11.2439687   0.2860224  -5.5649767   4.9859989 -10.9600002   7.0720013
   4.3960025 -10.9899893   6.2459842   4.3869833 -10.4329741   7.7690015
  -1.8820003   2.8310004   3.1920006  -0.8899985   2.6669953   3.4529962
  -2.4479964   2.3859983   3.9309971  10.6849984   3.7339988   4.4349945
  10.1749898   3.4769811   5.2860044  10.1749983   3.2880141   3.6810568
  -1.7480002 -10.9739959  -2.7089988  -1.8259812 -11.0999987  -1.7020276
  -1.6040043 -10.0010498  -2.8589800   6.2070002   1.3420007  -3.0580002
   6.9299906   1.8420010  -3.5999980   6.5349923   1.1869921  -2.0879964
  -6.7149968  -7.3120005   3.8329945  -6.4120210  -7.1189906   2.8860530
  -6.9800278  -8.2940029   4.0110278   9.6619998 -10.0799986  -0.4889994
   9.7289923 -10.7600017  -1.2450106   9.0559979  -9.3479999  -0.8439949
  -6.0749969  -9.9889973 -10.1050008  -6.5870227 -10.8730233  -9.9959788
  -6.2620202  -9.4640013  -9.2319944   6.2770009   5.0020025  -7.7880002
   5.9779965   5.5429893  -6.9630029   6.1000072   5.5349580  -8.6179495
   4.8250009   9.2720030  -9.9759936   4.2099560   8.5289472 -10.4240483
   4.3680024   9.6679874  -9.1780327  -7.1749986   3.9569988  -3.5829964
  -6.1689598   3.6809885  -3.7429947  -7.6550504   4.3450337  -4.4610543
   6.5310014   9.3590043   2.4410053   6.4869893  10.2579908   1.9449838
   6.3009774   8.6139280   1.7139284  -4.1750009   0.3530014  11.2889982
  -3.5889891  -0.3670353  11.7370072  -4.4619993   0.0240028  10.3670005
  -0.8380003  -5.9039999   2.0629993  -0.4939978  -6.1249965   3.0110018
  -0.0319965  -5.5909973   1.4940061   5.7500026   1.1459989   4.2959960
   6.7370468   0.9349708   4.6390194   5.1849317   1.5860304   5.0870465
   3.7819997   2.3959999  -3.6399999   3.3010004   2.4219988  -2.7399997
   4.7430001   2.0389996  -3.4719986   2.9859983   4.7019992  10.5169990
   3.5860182   5.3700077  11.0050024   2.7810108   3.8880059  11.1030046
  -0.6189968  -4.2820033  -9.8629935  -1.6470178  -4.2259881  -9.6909802
  -0.1890390  -4.4579578  -8.9870825  10.4449954  -0.2230039  -3.5830048
  10.1760247   0.2779879  -4.4059459  10.0770318  -1.1529403  -3.4839872
  10.2859999  -7.7779979   5.4330040  10.2439977  -7.1369954   4.6249686
  10.2060046  -7.3430222   6.3559764  -3.2759998   8.5979990  -7.8879984
  -2.4479797   8.7600008  -7.2609833  -2.9930131   8.7590010  -8.8750393
   5.2259999  -1.8559999   5.4199999   5.8239976  -1.3220003   6.0629977
   5.5549971  -1.6489992   4.4749984 -10.1040007   2.5429966  -0.3899952
  -9.9659869   2.4930070  -1.4490753 -10.2149939   1.6310409   0.0379941
   3.5509998   4.8279996  -4.9739997   2.5759994   5.1429998  -4.9279992
   3.6700001   3.9300013  -4.4860001  -5.3279965  -7.0869987  -1.1120019
  -6.0260311  -7.6010078  -1.6890380  -5.5890217  -7.0999932  -0.0789270
   0.8229999   5.8419998   3.4659997   0.8660003   6.7509994   3.0100003
  -0.0740000   5.7359981   3.9480004  -4.4569990   8.3280034 -11.4130027
  -5.3910198   8.0779848 -11.7479964  -4.2459933   7.6629580 -10.6359461
 -13.2039942   2.5259974  -0.5690015 -12.5840095   3.3420053  -0.5039898
 -14.1730644   2.8880354  -0.3829822  -8.7219937   7.4499951  -4.5470003
  -9.4010469   7.0930165  -3.8299690  -9.2110473   8.2840593  -4.9670134
   7.3579987   4.9420009   1.8859968   7.4050053   5.0179758   2.9250245
   7.3110145   3.9180036   1.7830165  11.0749954  -1.9109983   6.8109996
  10.8930060  -1.8210083   7.8059953  12.0400560  -2.3020230   6.7080012
 -11.2330029  -6.4500005  -2.7850034 -10.3399363  -5.8679818  -2.7649870
 -11.3639982  -6.8289954  -1.8129421 -12.6930001   0.5519999  -2.4699988
 -12.6999868   1.3279859  -1.8070152 -13.3850039   0.7210053  -3.1980073
  -4.5149942  -6.8530013 -12.3760055  -5.2160819  -6.5639456 -11.6029219
  -4.0140059  -6.0170251 -12.6589835  -7.4439948  -9.3240040  -1.3219933
  -7.9930165  -8.8759840  -0.5649991  -7.9410466  -8.9919464  -2.2381128
  -3.3079995  -4.3299977  -9.8260000  -3.7489941  -3.9589901 -10.6609840
  -3.4010105  -5.3720123  -9.8169913   8.2719983  -7.6160022   0.8940010
   8.1349813  -7.3540221  -0.0899925   7.7070342  -8.4189428   0.9729703
  -0.1349985   0.6020028  10.8769985  -0.7410034   1.4030064  10.6389845
  -0.6559898  -0.0600134  11.4710102  -0.3319975  -0.0889974  -8.0850018
   0.2659637  -0.1240012  -8.8909595  -0.3510033   0.8809703  -7.7869986
  -0.6129992  -7.3689992   7.5180002   0.3179682  -7.1630111   7.8529720
  -0.7459936  -6.8510067   6.6580141 -10.1559976  -2.5480036  -0.3120000
 -10.6800018  -3.2709877   0.2019988  -9.1860296  -2.7999713  -0.4919976
   7.0270001   2.2670022   1.8210009   7.0280071   1.6969693   0.9369676
   6.3029718   1.9099918   2.4770141  -3.5479981  -4.3400037 -12.8519974
  -3.9660285  -3.5849482 -13.4450305  -2.5820061  -4.1079965 -12.6359959
   4.4899981  12.2839962  -7.7770014   4.9249958  11.3369672  -7.6449950
   5.0930096  13.1350673  -7.6999933   1.5380005   9.0470022  -8.7239994
   1.9389877   8.5539962  -9.5460217   1.7639788  10.0399709  -8.7849918
  -7.2689987   5.2429982  -1.2269978  -7.0759919   4.5899766  -2.0340318
  -7.9100031   5.9500370  -1.6260098   5.3649951   3.3449978   9.2029995
   4.5169940   3.8609991   9.4790026   6.2110707   3.9690200   9.1349858
  -5.9969989  -2.8830009  -4.4809988  -5.6789955  -2.3989914  -5.3280199
  -6.9050132  -2.4249870  -4.2279875   7.6619962  -4.3880053   0.4340021
   6.7600308  -4.1449856   0.8419842   7.9540108  -5.3319239   0.4129827
   2.0809959  -3.3629998   8.2569996   2.2109987  -2.6969943   7.4589777
   3.0200529  -3.4910051   8.7270061   7.1739945   8.5639963  -5.5739957
   7.3020206   9.1089875  -4.7280439   6.5810572   7.7500408  -5.5680182
   2.8770024   7.5989982 -10.6079960   2.3589970   7.8849874 -11.4380078
   3.1849755   6.6630300 -10.8660258  -4.0479998   5.2079997  -0.3340001
  -3.9849995   5.4779995  -1.3309982  -4.6739997   5.9329998   0.0540006
   8.6469961   4.8280037  -6.7460052   8.9089961   5.7669780  -6.4099973
   7.9820561   4.8009749  -7.4899646   0.5310049 -12.8049934  -3.5840020
   0.4439823 -13.8561199  -3.7560094  -0.3140549 -12.4859902  -3.0409560
   5.8069947  -5.5010008   3.0790077   5.5730179  -6.4429780   2.7379845
   5.3520538  -5.1690027   3.8969127   2.1250021   2.7049984 -11.9390006
   2.6930158   2.8260027 -12.7729917   1.1339564   3.0440131 -12.0389931
   4.3949935  -3.8340012   9.7420014   5.0790442  -3.6459717   8.9229100
   4.9260423  -4.0210069  10.6370757   6.6119961   2.7050015  -9.2239947
   6.4070019   3.4389562  -8.5600281   7.3860603   3.0210241  -9.8650532
   6.9369979  -0.3989997   7.2370068   7.4810305   0.1350298   6.4999589
   6.8490082   0.1619678   8.0569417  -4.4079952  11.3920007  -3.8919987
  -5.4070610  11.3550088  -4.2400056  -4.4800090  12.0919635  -3.1700179
  -4.6859996   2.9339997  -3.7499998  -4.4500001   2.8930012  -2.7339984
  -3.9560006   2.3950012  -4.2460001   6.8189976  -1.6430000  -8.2010025
   6.9639931  -1.6620047  -7.1509455   7.7210286  -1.6390038  -8.7000143
  -2.8519984  -6.7780004   8.9279995  -1.8940198  -7.0109680   8.6810242
  -2.7179858  -5.8950258   9.4159824  -3.5939994  -5.4689991  -2.3049998
  -4.2440023  -6.1250029  -1.8199993  -3.9630042  -4.5240033  -2.1090012
   1.6629958   2.2479956  11.6909963   1.4809955   2.7570006  12.5550076
   0.9750334   1.5070382  11.6770370   3.0259972  -9.2450020  -6.0660027
   2.2429945  -9.7560074  -5.6140198   3.7180387  -8.8369647  -5.3849717
  -5.8369989  -9.8779960   4.4129966  -5.8350145 -10.8410432   4.8140384
  -5.0349985  -9.7009967   3.7930075 -11.9649946   4.3689922  -3.6240023
 -12.1449899   5.1790601  -2.9899504 -11.0790629   4.0350599  -3.3290008
  -6.5559974  10.5780007   4.7089973  -5.8850065   9.8170018   4.9020127
  -7.2340136  10.5209882   5.4820181  -0.3930025  10.0309971   4.6369980
  -0.2400083   9.4319695   3.8040023   0.1200278  10.9460605   4.6700318
  -1.7629976   3.8070028   6.2959967  -1.6490019   4.5179531   5.5950376
  -0.8880328   3.3840042   6.5690033  -3.6309961 -11.6990038  -5.8289983
  -3.0479976 -10.8670200  -5.9109848  -3.0070656 -12.3819111  -5.5610208
  -4.5889960   0.1400017  -9.4029968  -3.8400269  -0.4469757  -9.0850146
  -5.2760407  -0.5120533  -9.9010348  -8.7579975   6.7409966   2.3750007
  -8.2290012   7.5890009   2.1269845  -8.1210362   5.9710274   2.4629961
  -1.9859999   8.4319994  -1.6529999  -1.8800000   7.9219994  -0.7549995
  -1.1289996   8.2719999  -2.2009999   5.8099995  -1.4680000  -3.3980000
   4.7910010  -1.6189991  -3.2999982   5.9749999  -0.4499989  -3.3499983
  -8.0439979   5.1360010   6.4170035  -7.9610135   5.8200140   5.6109350
  -8.8810245   4.5649778   6.2549824   2.8250020   0.1499951   9.7479974
   2.6550178   0.9570215  10.3820314   3.4759599  -0.3929466  10.2809775
   9.2529972   0.6399988  -6.0400004   9.5990067   0.7950026  -6.9859972
   8.8080261  -0.2609806  -5.8909867   6.0479987  -6.4079999   7.2010019
   6.2999862  -6.2419836   8.1869891   6.7810107  -6.9739993   6.7239715
 -11.1969918   5.7849916   1.9229993 -11.7540562   6.6881192   2.0910144
 -10.2400485   6.0790018   2.0999892   4.5469976   5.0160030   5.8450046
   4.1209896   4.8859680   4.8669165   4.1020343   5.7179889   6.4570183
  -3.2210016 -12.5930058   1.4150015  -3.0269818 -11.7159049   0.8369858
  -2.9249946 -12.2399769   2.3169940  -8.3450046   4.9249974  -5.8350040
  -9.0359038   4.7610430  -6.4739160  -8.4080127   5.9269920  -5.6440203
   2.3090000   9.0959991  -4.6190021   2.7439904   8.7080122  -5.4459738
   1.8040099   9.9579897  -4.8429863   3.0889993  -1.6690001  -3.0310000
   2.8270039  -0.7850020  -2.5850024   2.5770041  -1.7329985  -3.9300001
  12.0929923   1.9799987  -2.2760041  13.0020772   1.8159759  -1.7619531
  11.8220256   1.0950365  -2.6529693   0.4979992  -1.9919941  10.3959990
   0.4890009  -0.9970795  10.3810177   0.8529988  -2.3700059   9.5069965
  10.7219990   4.0280015  -7.9660010   9.9979842   4.2039892  -7.2169456
  11.6209891   3.9539937  -7.5180017  -5.1379984  -1.0289999   6.8130070
  -5.7620559  -1.3980259   6.0299078  -5.4909603  -1.1399754   7.7559626
   0.8170002  -9.9999970   0.2270001   1.0549963  -9.2100264   0.8099950
   1.3000145 -10.7990265   0.7100187  -0.0020069  -8.7479974   3.9139996
   1.0290820  -8.9880146   4.0069984  -0.1329929  -7.9050143   4.4800043
  10.3030023  -0.8479999   4.4589996  11.0509718  -0.3090033   4.0180119
  10.6109834  -1.2270025   5.3669909 -10.6189965   2.0370068   3.8469988
 -10.9930541   1.0589226   3.9940087 -11.4739810   2.5209607   3.6420083
  -6.8329989  -0.6750044   1.5330004  -7.0480108   0.1520391   2.1550116
  -7.0329951  -1.5299743   2.0199834  -7.4400088   7.2989965   5.0990052
  -6.4738856   7.6010521   4.6389047  -8.0559528   7.8359882   4.5280148
   7.2660020   5.3469988   4.6379971   6.3689867   5.1370030   5.1180195
   7.3139869   6.3700090   4.6860132   1.5889965  -6.1650000 -13.1620105
   1.6019983  -6.1199775 -12.0608480   0.6930520  -5.9210110 -13.4899741
   0.5459997  -5.1860002  -7.7309997  -0.1289840  -4.9530011  -6.9990102
   1.1880013  -5.8919999  -7.3200015  -1.0200006   8.6669993  -9.5339968
  -1.0429939   8.3390070 -10.5210438  -0.0809895   8.5029927  -9.1290028
   0.7640021   2.5440003   6.9190012   1.5809933   1.9090034   6.9769867
   0.9119872   3.3549983   7.5600031  -1.0709964  -9.9989924   7.5449994
  -2.0590157 -10.0799885   7.8839968  -0.8970204  -9.0411245   7.4480086
   0.8230028 -10.2400006   9.2950013   0.4299942  -9.8219953  10.1599999
   0.0589457 -10.1249761   8.5559481  -9.5399986  -3.1449983  -7.3970059
  -9.8359879  -3.1670046  -8.3289085  -8.6680356  -2.6470145  -7.2669879
  -0.3580019  -8.3130024 -10.1109964  -0.3610027  -8.6320008 -11.0930318
   0.4640101  -7.7039946  -9.9509856   0.4659917  11.1079991  -5.5669956
   0.8360328  12.0800409  -5.7740004  -0.3259005  11.2229769  -5.0070666
   8.7290003   3.2349988  -1.8350093   7.9119650   3.6550207  -1.3009369
   8.5970270   3.0920063  -2.8159255  -3.6479984   8.7010008   2.2940009
  -3.6980113   8.1600056   1.4209802  -3.8009993   9.6549667   2.0159935
  -8.1710011  -1.3729990  -4.0180003  -9.0739744  -1.3379989  -3.5299988
  -7.5489990  -0.8600036  -3.3879924   7.2179987  -3.5229991  -2.1479989
   7.2190057  -3.7760021  -1.1570227   6.5470087  -2.7820113  -2.3880016
  -9.0390007  -2.2190009   3.8909988  -8.7989866  -1.5699892   4.6610104
  -9.9469979  -2.6529965   4.0220004   2.5850024  11.4690020  -9.2930017
   3.2509714  11.9390149  -8.6680300   2.5090124  12.1109504 -10.0179170
  -7.1269990  11.1050000  -4.2540019  -7.9130258  11.7520376  -4.4460179
  -7.2049848  10.4049571  -3.4639469   1.6009976  -2.0490020  12.9619862
   1.1220741  -1.9590075  12.1411438   1.1239581  -1.4729473  13.7070591
  -0.2220003   1.4239994  -5.0419993  -0.2279928   0.9000140  -4.1640088
   0.7610031   1.4260018  -5.3690004  -6.3860020  -9.7130041   8.6620026
  -5.8119755  -8.9259574   8.2389531  -7.2430056  -9.6479682   8.0929915
 -11.5219975   4.8499989  -0.6159934 -10.8060212   4.1350349  -0.5180261
 -11.7350115   5.3519872   0.2219264   6.4439976 -12.5200018   1.3679984
   7.3480083 -12.7119825   0.9460147   6.6700222 -11.9449846   2.1880131
   5.6039972   8.7200015  -0.2830010   6.6510353   8.7229996  -0.3709975
   5.1729872   9.6629972  -0.3859856  -1.2740000  -6.9379990  -2.2249999
  -2.0370001  -6.2410048  -2.2030003  -0.9879992  -7.0170026  -3.2180005
   0.8359998  -8.8120029  -2.3270006   0.9269935  -9.2839564  -1.4370305
   0.2150110  -8.0300027  -2.0739755  -0.6660005  -3.9639997  11.7839989
  -0.1259865  -3.2610065  11.2500033  -0.0750009  -4.7809877  11.8959903
  -6.0289978   7.8860012  -5.4719963  -5.3180267   8.1629756  -4.8280405
  -6.9800021   7.8599993  -5.1000113  -7.4719973   0.5229970  -6.2490012
  -7.1739907  -0.4069718  -6.5249845  -8.4960365   0.5640168  -6.0559957
  -2.1120004   8.1250001   8.7220014  -2.5109834   8.1609990   9.6459732
  -1.6639912   9.0159679   8.5319967 -11.7539976  -2.2360033  -6.0289977
 -10.8379907  -2.6440076  -6.2659858 -12.0990289  -1.5219411  -6.7070370
  -3.4130000  -5.0149997   2.3899994  -3.6849983  -5.2739987   3.3520018
  -2.4269973  -5.2909981   2.2350044  -2.9479999   5.0939999   2.1739999
  -2.4639980   4.2219955   2.4719996  -3.3089993   4.9919982   1.2079993
  -4.4230035   2.5160021 -11.6069994  -5.3829323   2.6689856 -11.3710000
  -4.1189989   1.6799844 -11.0979908   4.9499996   2.4280050   6.7280031
   5.1319922   2.5579897   7.6969234   4.8410176   3.3689303   6.4060379
  -2.7419982   0.1529963 -13.7360005  -3.2990198   1.0260447 -13.6859907
  -1.8580086   0.3680142 -13.2529909  -5.2860033  11.8409956   2.7900048
  -4.6500006  12.4830088   3.2700010  -5.8749530  11.4440383   3.4839332
  -0.2359914  -8.7899967  11.3249981  -1.0820237  -8.2099622  11.5690097
   0.4728793  -8.1380746  11.2580095  -4.6010015  -2.9460006  12.1259946
  -4.4459775  -2.5919773  13.0950534  -4.0469940  -2.3749982  11.4990160
  -8.2129981  -0.0459939  -9.6749970  -8.0870515   0.8410025  -9.1909993
  -7.4689527  -0.7481216 -10.0480460  -6.8039990  -2.0550025  -7.5189965
  -5.9570300  -2.5129783  -7.2369975  -6.6229822  -1.6919840  -8.4820476
   4.7959969  -1.3480035  10.7580004   4.5559957  -2.1589927  10.1729969
   5.4750370  -0.6949531  10.2849741   3.8420033   9.8870042   9.1800043
   4.5440473   9.1549319   8.8829887   2.9358855   9.8329908   8.6189428
  10.9319992   4.4090051  -0.7240003  11.7990170   3.9039666  -0.4869883
  10.3079822   3.6369322  -1.0840031   4.8879995  -3.0949979 -11.7670013
   4.3670127  -3.5959788 -12.4619824   4.8889840  -2.1200486 -12.0100007
  -5.0710042  -7.5840026   7.5870007  -4.1739318  -7.0829419   7.9050003
  -5.0449963  -7.5809959   6.5589726   2.7529999  -5.5110002   3.0109999
   2.4869986  -5.2289955   3.9659974   3.2339997  -6.4099974   3.0390002
  -3.4350002   4.5450027  -8.3880007  -4.2469751   4.9469560  -7.9520034
  -3.4940139   3.5529842  -8.0559777   9.1629944   0.1189967   9.8190002
   9.8030427   0.9310586   9.6549858   8.1950207   0.3400018   9.6180017
  -7.2039952  -0.5829939  -1.3400019  -6.7450436  -0.0080802  -1.9989709
  -7.3600242  -0.3130341  -0.3670045  -0.4510077   0.7090075 -12.1840019
  -0.9939845   0.9649784 -11.3720194   0.3281168   0.0118981 -11.8619416
  -4.5229998  -5.6749983   4.8230001  -5.1109875  -5.0490210   5.3559919
  -5.1499987  -6.3929982   4.4320035   9.7620004   0.9089971  -0.9489972
   9.3479732   1.8490466  -1.2330187  10.0219942   0.5260045  -1.8750151
  -5.5279983   5.9160003   9.3770016  -5.6880064   5.2329979  10.1119960
  -5.5330228   5.4379744   8.4349502   8.3499986   2.5289987  -4.4059994
   8.8880291   1.8989836  -5.0510102   8.4100003   3.4930184  -4.7709871
   2.8359963   6.5399947   7.2620003   2.1590583   5.9430570   7.6629770
   2.4979964   7.5130159   7.2850176   3.3450048  -9.7280008   8.5399964
   3.2459907  -8.7859743   8.1049845   2.4269431  -9.9500066   9.0460411
   4.9579988  -8.2499947  -3.9040049   5.1150103  -9.1210519  -3.3109383
   5.8960110  -7.9869861  -4.2599767   5.0299969  -7.9439972   2.2999959
   4.4090486  -8.0690003   1.5230385   5.0820068  -8.8260292   2.8420223
   2.3549998  -5.2020016  13.1330006   2.2390194  -4.1979955  12.9899970
   3.2959878  -5.2839793  13.4849857  -6.5460041 -11.9249955  -1.4979953
  -5.7999631 -11.9279913  -2.2580717  -6.9259577 -11.0130714  -1.5390107
   2.2059999  -4.9080000   5.6359999   3.2429989  -4.9219977   5.6279981
   1.9019994  -4.4549979   6.5009973  -2.3649963  -7.2670001  11.8649999
  -3.1920442  -7.3469933  11.2449923  -2.7420096  -6.9879978  12.7659913
   4.8030002 -10.7639990   3.6439999   4.7250129 -11.7340041   3.9490017
   5.8079803 -10.5680057   3.7339937  -2.0459983  11.8059955  -1.1790017
  -2.2919821  10.8330220  -1.0599995  -2.7460415  12.4980472  -0.8019769
  -2.9209995   1.1389996  -4.7649995  -2.9880042   0.5130038  -3.9540012
  -1.9240021   1.3330033  -4.9620021   9.0139992  11.5189939  -0.1160006
   9.9869793  11.6909867   0.0579975   8.8690181  10.5510893  -0.1499890
  -5.6010086  -6.5060017   1.5099989  -4.5698864  -6.1899575   1.6470051
  -6.0119651  -5.6640225   1.1510084  -3.3480002   1.3620000   5.0389998
  -2.6579978   1.1879988   5.7919986  -4.2349969   1.6309990   5.4679990
  -2.7689924  -7.0040025 -10.1899944  -3.1850231  -7.1889999 -11.1550810
  -1.8580818  -7.3699510 -10.1070019  -0.8289980 -13.1149978   3.3789974
  -1.3550287 -13.9600393   3.6910254   0.1660010 -13.2829902   3.2800027
  -8.0350022  10.3199982  -0.1390046  -8.7949573  10.9599677  -0.1150010
  -8.0990011   9.7110499  -0.9149253  -7.5160032  -3.0960018  -0.6649991
  -7.4939941  -2.0699625  -0.9170045  -6.5239652  -3.3259951  -0.8970031
   4.2510002   1.1490003   0.7789998   3.7549960   0.9569985  -0.0949939
   4.9339953   0.3989978   0.9420017   3.4100069  -7.4989957  -1.8599990
   4.0409725  -7.8319973  -2.5859634   2.4799283  -7.9050418  -2.2110400
  -4.0549995  -4.8819995  -5.0899995  -4.8530020  -4.2620001  -4.9030010
  -3.8530011  -5.3820019  -4.2130007   1.4110028   9.1729969   6.7749965
   1.0029776   9.4270168   7.6960433   0.7049809   9.4600205   6.0740005
  -9.0689987  -8.4829986  -3.2989974  -9.4220098  -9.1930667  -4.0000583
  -9.7380072  -7.7149477  -3.0409728   9.0340011  -5.4490011  -6.0889931
   8.9760050  -5.3379943  -7.1360792   9.9569637  -5.7489830  -5.8700116
   1.1579948  -2.4819974 -14.0489985   0.8079765  -2.5870057 -13.0829870
   2.1251029  -2.8780347 -14.2270250  -4.3259988   6.2130031  -2.8890047
  -4.5379899   7.1719323  -3.0779995  -4.0250277   5.8250467  -3.7319262
  -7.3300011   1.2969993   3.3049984  -8.0029936   1.9469834   2.9020103
  -6.6909838   1.8420218   3.9130129  -4.9349990  -3.0859996  -1.9969999
  -4.4770073  -2.1630000  -1.9360005  -5.3750028  -3.1030006  -2.9329999
   2.0660009  -6.7789974  -6.3249987   2.7219751  -6.2130175  -5.7900255
   2.4060036  -7.7660113  -6.3379966  -0.5020001  -6.9449993  -4.9099995
   0.4130011  -7.0850007  -5.3570006  -0.8739995  -6.0460013  -5.2550014
   9.4380002  -2.6820012  -3.3150007  10.0099797  -3.5219746  -3.2209885
   8.7660134  -2.8410128  -2.5419724   6.5579987   0.8259970   9.6589981
   6.7680089   0.9940180  10.6540121   6.4060231   1.7820229   9.2849924
   7.8560033   8.4129983  -8.7139964   7.8640110   8.3229938  -7.7050069
   6.9189344   8.6760199  -9.1280401  -1.6749969  11.8820007  -3.9439954
  -2.6030259  11.4039748  -3.9929879  -1.3940159  11.9009972  -2.9940772
  -3.8560014   5.1539937 -11.0780026  -3.8070005   5.1370155 -10.0399730
  -3.8079886   4.2150712 -11.4129759   9.7940054  -6.3759962   2.7460008
  10.7149095  -6.3200096   2.4300194   9.2439834  -6.9450239   2.0439671
 -11.4429986  -4.4669995   1.0890003 -12.4390354  -4.3799828   0.8109852
 -11.1879719  -5.3410131   1.5650062   0.8929947  13.5899987  -6.1609955
   1.0379988  14.1260138  -7.0230173   0.0340641  13.9359734  -5.7870538
  -8.7249961  -1.1479983   6.4579999  -8.3659889  -2.1150262   6.5949886
  -9.7400633  -1.1019941   6.7030005  -6.5709980 -11.1049985  -4.9789942
  -6.2919846 -11.7450255  -5.7500368  -5.7820578 -11.0149836  -4.3840506
   5.1759999  -3.5070001   1.0949997   5.0389971  -4.2009971   1.8420006
   4.3489978  -3.4919967   0.4740040   2.7720027  -9.2819969   4.9139968
   3.6859694  -9.4209861   4.5260208   2.5459951 -10.1820583   5.4510293
  -1.2329947  14.4889987  -4.6609985  -1.6060434  13.5920318  -4.3380106
  -2.1420398  14.8669766  -4.9469933  -3.7649983   2.0149986  -7.5299929
  -4.4140241   1.3619868  -8.0230135  -3.6650062   1.8260352  -6.5730908
  -4.0889991  -0.4640005  -2.3049998  -4.1160040  -0.0929953  -1.3429981
  -4.8610020  -0.0539980  -2.8489996   2.7219997   0.8260004   7.2760030
   2.6279929   0.4830008   8.2469695   3.6880013   1.1289852   7.1049978
   3.2310001   1.7580004   3.2160000   3.3779959   1.5309949   2.2190000
   4.0879972   1.4199968   3.6739978   1.3659999   8.0879994  -0.2990000
   2.2790008   7.5980002  -0.2879997   0.9930004   8.0000004  -1.2539998
  -1.4359999  -4.5209996  -5.8769993  -1.2899998  -3.4989997  -5.9480029
  -2.4330006  -4.6760009  -5.6450020   5.4769978  -6.8950064 -11.0740010
   6.0320490  -5.9989135 -10.9699803   4.4779762  -6.6269790 -11.0839978
   3.3840014   4.9489991 -10.4959992   3.0119985   4.1600254 -11.0189889
   2.6089806   5.2199978  -9.8740098   9.7660003   2.5430012   2.3780017
  10.1399665   2.3230029   1.4740167   8.7760440   2.4299988   2.2009803
   1.6290015   5.3160015  -8.0839985   0.5929546   5.4310160  -8.2889899
   1.9450148   4.3299656  -8.2390159   2.6360015  12.8559985   3.3939961
   2.0459885  13.6780082   3.5280039   2.7999888  12.6690127   2.4230522
  -3.6309979  12.7080044   5.4299957  -3.3949813  11.6869039   5.6750347
  -4.3860459  13.0690203   6.0500375   7.8590008  -9.2299995  -2.5380025
   7.7770023  -8.2539690  -2.1929764   6.9889709  -9.8090234  -2.4509814
   9.8539959   5.7639993  -3.0870050   8.8470379   5.8029968  -3.1300006
  10.1910249   5.6299989  -2.0869230  -5.8569993  -6.4030009  -9.8979979
  -6.7919688  -6.7379769  -9.6900046  -5.2900185  -6.5839974  -9.0560065
  -9.1070011  -4.9689971  -2.9610029  -8.1410094  -5.2689977  -2.9890072
  -9.2609778  -4.4080489  -3.7549430  10.9899954  -0.9619936   0.7519955
  10.4600524  -0.4680608   0.0950692  10.8869987  -1.9990500   0.6129967
   0.0779977   2.5740003  -7.7499993  -0.2359929   2.6389978  -6.7890185
   1.1260371   2.5039901  -7.7519860  -8.2399973  -9.8819970   2.4889985
  -7.3000092 -10.3000067   2.4430170  -8.8750189 -10.6610272   2.2549934
  -1.3029999  -1.7999998  -6.2499992  -0.9139998  -1.2289999  -7.0310014
  -1.7860008  -1.1589996  -5.6230054  -7.9469966   1.1110016   9.2660021
  -7.0160543   1.2579789   9.5639708  -8.0479911   1.3969917   8.2729798
   5.5670049   6.5050005  -5.6589937   5.9999305   6.2910197  -4.8131122
   4.6659900   5.9939892  -5.5359915   3.8390048  -5.3069950  -4.8239967
   3.8719967  -5.1570105  -3.8500822   4.4519299  -4.7170629  -5.2839540
  -2.3880003  -3.2060027   7.7950011  -2.7229976  -3.5689458   8.6719532
  -2.5690006  -2.2160096   8.0120134  -1.0260045  11.2990001  -9.2939987
  -1.0759875  10.2549741  -9.3640039  -0.0179412  11.5450040  -9.3660079
  -5.0599957   1.9909975   8.0810049  -5.5750422   2.2890032   7.1959334
  -5.1840054   1.0010422   8.0929865  -9.6929958  -5.9069996  -6.9930022
 -10.6030385  -6.1680069  -6.5719836  -9.6620093  -4.8800023  -7.0579947
   4.6600000  -5.2149992  -2.1810014   4.3400129  -6.1730201  -1.9149909
   5.4739773  -5.2959995  -2.7739814  -2.1960006  10.8619910   8.4490009
  -2.1219909  11.9231256   8.5840078  -2.5400070  10.6770046   7.4849766
  -1.7520019 -10.4929980   3.0179990  -1.3569860 -11.4310083   3.2140145
  -0.9809767  -9.8300056   3.2689954  -2.9429954   3.4200022   8.7679967
  -2.6180190   3.2179894   7.8320323  -3.9050649   2.9579667   8.8080065
  -4.4150004 -11.7409931  -3.0729957  -3.4939807 -11.2529747  -3.1210081
  -4.3610028 -12.7241219  -3.5090538   9.4100066   6.9859948  -5.5280051
   8.4468574   7.5100581  -5.4339778   9.7950220   6.7529935  -4.5719361
  -7.2049976   2.8049998 -11.0480051  -7.2350209   2.6050011 -10.0159443
  -8.1550171   3.1380039 -11.2059719  -4.5810001  -6.6260016  -7.6160033
  -3.7290054  -7.0769817  -7.2909797  -4.6559914  -5.8179810  -6.9759817
   1.1059999   6.1369997  -5.3159997   0.8940006   5.6489998  -6.1909996
   1.8199996   6.8249988  -5.5899994   6.4829983   4.6969976  -0.9010023
   5.6389812   4.3949912  -0.3659880   6.9860288   5.3780379  -0.2839780
  -3.7119992  -2.6220034  -7.9300041  -3.6750078  -3.4669687  -8.4869545
  -2.8749939  -2.5990066  -7.3389922  -4.3699977   8.7900017  -2.9950006
  -3.6160182   8.3699781  -2.4240003  -4.1620068   9.7709627  -3.1299796
  -3.5630094  -8.4750027  -3.5340014  -3.3389626  -7.8229581  -2.7469588
  -4.4748857  -8.8039920  -3.6330103   1.0979965   4.6409989   8.3879977
   0.1570564   4.9669779   8.5489853   1.6409995   4.9030202   9.2320139
   6.3210001  -0.9999999   1.2779998   5.8409960  -1.9059990   1.1350013
   6.9519964  -1.1619995   2.0819994  -0.4790017   4.1820044 -11.7209992
  -0.8959954   5.1029811 -11.6490156  -0.9279980   3.4779763 -11.1039839
   6.4550052   6.4039992  10.0290001   5.9509525   6.8740083   9.2469810
   5.7809547   6.3999955  10.8070165   2.3819984 -11.4689976   1.7169978
   2.9060045 -10.9890051   2.4560062   2.4790053 -12.4730103   1.8920146
   9.5089972   6.1479967   0.8940019  10.1999913   5.4880088   0.5340105
   8.7410414   5.6510238   1.3199708   3.6700019  13.3130007  -5.1579964
   2.6489933  13.3419834  -5.2960170   3.9839884  12.8989972  -6.0450156
  -8.4079993   1.8420001   6.7270002  -8.3210085   0.9230218   6.2979982
  -9.2689762   2.2389872   6.3930009  -7.8460041  -9.8910020   6.4210062
  -8.5590104  -9.3159721   5.9629869  -6.9789049  -9.8699948   5.7769290
   4.8929993   0.4150023  -8.7330001   5.4169746   1.2759608  -8.7779864
   5.5610218  -0.2810026  -8.3529836   3.6970001 -10.2280000  -8.3360012
   3.2940048 -10.0049715  -7.4019772   4.2559791  -9.3709997  -8.3849620
  -8.5040023  -4.9199974   1.1179972  -9.4329222  -4.8850032   0.8010163
  -8.0090297  -4.3370306   0.4580246  -7.3689991  -4.2950036 -10.5769990
  -6.8550071  -5.0069823 -10.0459836  -7.5590022  -4.5599827 -11.5410104
  -6.1789947  -9.0359924  -7.6529985  -6.0230066  -9.5739972  -6.8120125
  -5.8020632  -8.1511234  -7.5940141  -0.2480001  -1.5860000   6.9040000
   0.6560000  -1.8409989   6.4979950  -0.8099987  -2.4129985   7.1419964
  -3.5370026  14.2490011  -0.2740018  -4.1779515  13.9480380  -0.9599267
  -3.9509828  15.0779359   0.0589665   0.5109999   7.7709994  -2.9779997
   0.4970007   6.9609990  -3.6090008   1.1840007   8.4160001  -3.4250002
   1.7319994  -1.4910000  -5.4279995   2.0570016  -2.0569991  -6.2390000
   0.7130044  -1.5609995  -5.4530031  -1.7760018   2.2109990  -9.9100016
  -2.5019791   1.7580068  -9.3679926  -1.2180058   2.6550069  -9.1549707
  -8.8479988  -8.0090020   0.7779981  -8.5910070  -8.5949562   1.5930173
  -8.8340080  -7.1040173   1.2490254  -6.0119989 -10.8109995   1.1839951
  -5.2240228 -10.2840082   1.5459979  -6.1029941 -10.6629899   0.2060621
  -4.1610037   3.2739970  12.2179992  -3.1429686   3.1629873  12.0589951
  -4.5859724   2.3820597  12.1710072  -1.2429996   9.0569909  -6.1549950
  -0.7520575   8.3070816  -5.7970422  -0.5719454   9.8570614  -6.3830309
   9.7099964  -6.7350050   7.8180039   9.5830102  -5.7209539   7.9829807
   9.3650371  -7.3899627   8.4789455   3.1609995  -3.4930000  -0.8270007
   3.7230024  -4.2069994  -1.3349976   2.9780041  -2.7659985  -1.5309936
  -0.0440000  -6.1580000   4.7759997   0.8260000  -5.7039967   5.1019982
  -0.8529992  -5.5809964   5.1029994  -8.4669989  -7.1939979  -8.8460052
  -8.2720004  -8.1560339  -8.5209724  -8.9340308  -6.7359881  -7.9839127
