coordinates Written by CommBox::Input
1212
  -0.4309969   3.4620031  -2.2599945   0.1239681   3.8719597  -3.0979324
  -1.3089384   4.0719527  -2.0690049  -0.7459730   2.4500528  -2.5109841
   0.9179985   4.8419995  -0.6170028   1.4879542   4.7869885   0.3049310
   1.5459533   5.2459494  -1.4029424   0.0510590   5.4759331  -0.4710109
   0.4620036   3.4499940  -1.0189870  -0.2609909   2.9079841   0.0809798
   1.6349807   2.6719770  -1.2709953  -1.4609856   1.1880241   0.8239912
   2.5429699   0.6870152  -1.5359899  -0.4470160   1.5780019   0.0680164
   1.5660285   1.3320114  -1.1890092   0.3810022   0.7400092  -0.6030065
   0.2239812  -0.7420049  -0.7560111   1.2109388  -1.1340070  -1.0280192
  -0.6559746  -1.1219354  -1.9450342  -0.7849995  -0.4620408  -2.9579444
  -1.2570093  -2.4030329  -1.5999705  -1.8009297  -2.9949440  -2.3139537
  -1.0429971  -2.6819618  -0.3120335  -1.3549675  -3.5779537   0.1939427
  -0.3319737  -1.5720012   0.4130432  -1.1191134  -0.9660056   0.8968414
   0.6230073  -2.0510286   1.4069824  -0.0589907  -2.4609738   2.6309855
  -0.9649724  -2.9899626   2.3360359   0.5849645  -3.1779499   3.1429565
  -0.4290028  -1.3220063   3.5880007  -1.2109523  -1.6499454   4.2659539
  -0.7900083  -0.4600650   3.0320283   0.4249456  -1.0000375   4.1739504
   1.7579664  -1.1740019   1.6490009   2.2650301  -1.0000166   0.6970573
   1.4520949  -0.1889842   2.0400276   2.7629971  -1.8139995   2.5979960
   2.4100139  -1.8089944   3.6219134   2.9389653  -2.8399216   2.2950052
   3.7019473  -1.2670297   2.5560026  -1.8119227   1.9577553   1.3108694
  -3.3540021  -0.1780002   2.8019984  -2.3469566  -0.2310010   2.6520182
  -3.4879838   0.3839980   3.6640008   7.4379973 -10.6730045   3.9540099
   7.8019708 -11.3988665   4.5368463   8.2550252 -10.2990497   3.4669951
  -1.2359739   6.7030034 -11.3919778  -0.9188979   7.1301167 -12.2942002
  -2.2233723   6.2727935 -11.5170559 -10.4670025   0.0510054   0.9779984
 -10.1879849  -0.7619902   0.4150452 -10.4390262  -0.2870411   1.9380107
   2.0119997  -7.1460264  11.0610064   2.0299754  -6.4378328  11.8300700
   2.0720638  -6.5937484  10.1507706   2.4089990   1.2409997  -5.6529995
   2.9950050   1.6180037  -4.8829988   2.3800096   0.2089988  -5.6160024
   9.2349757  -4.0680162   9.9010073   8.4210959  -3.9259999   9.3250381
  10.0033094  -3.3997249   9.6058429   3.7360027  -5.8220172  -9.0359863
   3.6309786  -6.4148236  -8.2492224   4.2900322  -4.9649593  -8.8399885
  -5.5130089  13.4680100  -2.3110074  -5.8160857  12.7079559  -1.6699992
  -6.2818276  14.0488431  -2.5249163   8.6660042  -3.4560012   6.5739984
   9.2208812  -2.6210962   6.5099382   8.6300465  -3.7868320   5.6180900
   5.9579903   6.1160017 -10.4529967   6.7391769   6.0399914 -11.1311141
   5.1330027   5.5290059 -10.6179735  -1.2379919  -9.9239930  -8.3810158
  -0.8870192  -9.0959632  -8.8888913  -1.7640450  -9.6289770  -7.5389574
   5.1650335   9.6170226  -7.2950112   5.8028434   9.6880335  -6.5180648
   4.5076371   8.7815996  -7.0588320  11.7929999   4.1960033  -4.0890015
  11.0359968   4.8369623  -3.8179769  11.8199589   3.4530251  -3.3869814
  -4.2000000   2.6079986  -1.1600010  -4.3299971   1.8520116  -0.4709911
  -4.1649951   3.5300061  -0.6929906  -5.8190000   7.2180049   0.1880137
  -6.5071038   6.7270407  -0.4020116  -6.3289315   7.7508469   0.8487760
   6.8459951   6.2410095  -3.2600129   6.7189765   5.5920684  -2.4669200
   6.3450755   7.0258240  -2.8618938  -5.6690068  11.7039911  -0.3079930
  -6.4468181  11.0911853  -0.4269997  -5.7570670  12.0929711   0.6158275
   0.9700022  -2.3449968 -11.1749915   0.3330313  -2.9799709 -10.6850290
   1.5129667  -1.7770747 -10.5460818 -13.1679942   0.2609943   1.1270008
 -13.2409660   1.0390213   0.4579784 -12.2270837  -0.0929769   1.0170147
  -1.1939844  14.5010191   0.8619941  -2.1602140  14.2319338   0.5179505
  -0.9721103  15.3457698   0.4111195  -9.0880117  -5.8299983   4.3170019
  -8.8039525  -4.9999440   3.7879858  -8.2798965  -6.4870786   4.2660067
  -7.3879816   8.9050021  -2.4589972  -7.8581687   8.1088739  -2.9490412
  -6.4441440   8.7050676  -2.1519735   3.4339932  10.8890009   5.2010033
   3.0880163  11.5029630   4.4489683   2.7420882  10.4020284   5.7499734
   7.2159887  10.0679962  -3.2559922   6.3921513   9.6610794  -2.8580842
   8.0370105   9.9969945  -2.6540396   0.6119998   2.2150022   4.1030010
   1.5409945   1.9579765   3.7409887   0.6840014   2.3779870   5.1149897
  -7.2620065  -3.8789939   9.6159960  -6.9189852  -4.8191175   9.9119933
  -7.5359468  -3.9679732   8.6391391   1.0000020 -10.1189853  -4.6030056
   0.8239617 -11.0571629  -4.1478539   0.8840001  -9.4119459  -3.8520062
  -2.0300160   5.9370065   4.6890053  -2.5389318   5.9320456   3.8211778
  -2.4508999   6.6328728   5.2768092 -11.0729987  -8.1649891  -0.7250130
 -11.2649561  -9.1451156  -0.4758812 -10.2910598  -7.9640351  -0.0849454
  -7.1929946   9.1010121   2.2450087  -6.9400351   9.6688898   3.0479638
  -7.3880088   9.6189238   1.3749395   4.2219991 -11.7400082  -0.3840039
   3.4388056 -11.2918553   0.1520555   5.1221572 -11.8689569   0.1139387
   5.5559920 -10.7400092  -2.5489772   5.3221780 -10.9748660  -1.6193030
   5.1459858 -11.4510294  -3.1640242  -7.5630046   2.5089695  -8.2140068
  -7.4139816   1.9969741  -7.3138655  -7.4219534   3.5675334  -8.0799731
  -0.2080008  11.7369984   0.9079948  -0.8049959  11.5690144   0.1001082
  -0.5680457  12.6319530   1.2519869   7.2129874  -8.0849915  -5.3149862
   7.8041610  -8.5710893  -6.0252022   7.2280001  -7.0861007  -5.4580047
  -6.2099987   0.6699995  -3.6739995  -5.7570043   1.5990054  -3.6869996
  -6.7100063   0.5850017  -4.5750038  -9.4119930  -3.0220067  10.9540135
  -9.9361236  -2.2208357  10.5608996  -8.7549601  -3.4420818  10.2518062
  -6.2770133  -1.5029993 -10.5689675  -5.9298145  -1.3829448 -11.5864862
  -6.6719705  -2.4428966 -10.4659759   2.7149997  -7.7039999   0.7069988
   3.0300016  -7.6899985  -0.2789899   2.1430031  -6.8559929   0.8210102
   4.2190101  -2.3019959  13.4260007   3.1768630  -2.3160441  13.3289621
   4.5799514  -1.9900478  12.5300433  -5.5620032  -5.5830061  12.8610219
  -5.8150065  -5.9140263  11.8917388  -5.2669331  -4.5958818  12.7289510
   8.3089813   8.1609957  -0.4789846   8.7850381   7.4210020   0.0689451
   9.0392977   8.4440208  -1.2062129  -6.2429938  -8.4249955  -4.3160032
  -7.1470259  -8.1990167  -3.8889502  -6.3319723  -9.3960125  -4.6419849
  -5.2769882   6.7940040  -7.9300062  -4.5211628   7.4669098  -8.0119538
  -5.6559901   7.0630187  -7.0059726  -5.1370310   5.0559988   6.9530015
  -4.5758700   4.4349289   6.3399148  -6.1096077   5.0450483   6.7961394
  10.5099733  -3.6739917   0.5590146  11.2644512  -4.3852649   0.2688557
   9.5080116  -3.9018858   0.5700401  -2.7720066  -4.3819984  10.2579986
  -3.6118572  -4.4640138  10.8029343  -1.9929782  -4.3340335  10.9600999
  -0.0029897 -11.7370039   5.8939844  -0.5977820 -12.0259287   5.1672119
  -0.4860375 -11.0979569   6.5780687  -7.0910055   8.0669981   7.8659894
  -6.5739892   7.3599593   8.3959338  -7.2529287   7.6700684   6.9672236
   5.0459842  -0.2629942 -11.5480003   5.0369501   0.0899646 -10.6031501
   4.1353380  -0.1670579 -11.8748390   7.0390060  -5.1179942  -4.3320021
   7.8008899  -5.0489330  -4.9928355   7.2390340  -4.3931269  -3.6611736
  -8.9069754   3.3940096   2.1840001  -9.4201254   3.3059766   1.2920384
  -9.6491716   2.9629363   2.7849534   3.7429997   6.7819995  -0.4020000
   3.9889994   5.8540015  -0.0409987   4.5099993   7.4579979  -0.2289992
  13.1570206  -4.3600003   3.8600280  12.2327428  -3.9338846   3.5269093
  13.3439164  -4.0980902   4.7716584   8.1579939   1.0700058   5.1829941
   8.3949880   1.9949699   5.5830212   8.9940093   0.6479879   4.7549981
   4.3210001   4.1310005   0.7349989   4.3059947   3.1049909   0.7200085
   4.0749950   4.4389929   1.6870074  -0.9069980   5.5009932  -8.8869979
  -1.1520546   6.0940933  -9.7121188  -1.7709918   5.1669924  -8.4279203
   0.7300030 -11.6280017  -7.0139930   0.2750499 -11.0189157  -7.6979346
   0.9689705 -10.9910160  -6.2801692  -1.3219958   5.7020217   9.2150073
  -1.4629423   6.6188635   8.7969834  -2.1141672   5.0939280   8.8738507
 -10.3469952  -0.9280087  -2.5570133 -11.0530455  -0.1747769  -2.3469604
 -10.2319226  -1.5330723  -1.7018256  -3.1160036  -0.6690073   8.6660071
  -3.8661119  -0.6479737   7.9429469  -2.3758537   0.0301150   8.4189931
  -1.3970006   0.8080008   7.0110006  -0.9739936  -0.1400064   6.9239873
  -0.6079974   1.4699934   7.0259920   2.7580062  12.4490087   0.6199955
   1.8040239  12.0820195   0.5309999   2.7189890  13.4418024   0.5490660
   1.4709981  -5.1800017   0.7349963   1.9790037  -5.1519714   1.6440201
   1.9140161  -4.4979832   0.1020346   1.7189935   0.3530029  -9.9280034
   1.6329384   1.2230128 -10.4730286   2.5581251   0.3389462  -9.3088782
  -6.8520044   4.8389904   1.5430012  -7.7639511   4.4271652   1.7679915
  -6.8340059   5.0500608   0.5360226   5.4560080   9.0610038   4.9709802
   4.6498561   9.7310324   4.9500582   5.9639867   8.9278813   4.1072040
  -2.2120000  -7.6909988   0.4659995  -1.9059976  -7.4960070  -0.4939979
  -1.6909979  -7.0720043   1.1060083  -2.0910010  -4.8630008   5.7290001
  -3.0189906  -5.2009924   5.4320000  -2.2199929  -4.2189936   6.5349929
  -2.0960172 -10.5759972  -0.0379982  -2.3259055  -9.7601229   0.5079652
  -1.0568922 -10.5429601  -0.0300036   4.4490014  13.4289953  -2.6540089
   4.7179989  12.5530295  -2.2089841   4.1239724  13.3010102  -3.6269417
   8.2260045  -4.7040135   3.9419950   8.8528620  -5.3939612   3.5090091
   7.3321027  -4.9139611   3.4899825   2.5740011  -1.6839997   6.2770019
   2.4949932  -0.6890081   6.5529829   3.4869849  -1.7949980   5.8089865
  -3.9280058  -9.1640005   2.2400014  -3.0208528  -9.5880575   2.5870764
  -3.7480279  -8.4648821   1.4848695   1.4869855  -6.1780149 -10.4320146
   2.2972791  -6.0219051  -9.7266794   0.8809770  -5.3308456 -10.3890208
   4.8929934   8.2440096  -3.1540239   4.4619273   7.9889430  -2.2368148
   4.2452013   8.7648769  -3.6918524  -1.4519992   2.9019997  11.2460121
  -0.6266991   3.4811152  10.9449904  -2.1732285   2.6727960  10.4988600
  -4.5960009  -2.5790003   3.3089985  -4.1389860  -1.6809965   3.0800123
  -4.1039902  -3.3499954   2.8380153  -6.1240013   2.7239946   5.6080050
  -5.7928896   3.5490995   5.0439681  -7.1311601   2.8040109   5.8800051
   9.8759900   9.6840026  -2.0819967  10.0699997   9.9260241  -3.0681106
  10.7350994   9.6649841  -1.5058714  -9.8899754   2.7520091  -3.1680027
 -10.3001583   2.1579061  -3.9340926  -8.9183253   2.9289664  -3.2348884
   6.7520105  11.9499730   1.1329936   7.5518640  11.9471292   0.4990708
   6.7080533  12.9773208   1.3489942   0.1140001   9.0919989   1.8739997
   0.0079997  10.0890065   1.6279996   0.6749993   8.6840001   1.0970032
   6.9480035  -6.4040126   9.8139701   7.8370118  -6.7569539  10.1751352
   6.5369437  -6.0098691  10.7013483  -3.0930085  12.6010167  -8.1949954
  -2.2927025  12.1048390  -8.7242154  -3.7751742  11.9008181  -7.7628400
   7.9130089  -1.8639664   3.4379962   8.7548510  -1.4711404   3.8279554
   7.9480226  -2.9153834   3.6661256   6.1679670   8.3540012   7.5899946
   5.7979898   8.5349530   6.6440368   7.2425754   8.4570236   7.6010196
   2.9959938   7.5070014  -6.8850035   2.4300498   8.1790394  -7.4148715
   3.1430902   6.6078340  -7.3980421   8.2469930  -9.0310094   8.8570005
   7.7629807  -8.8499256   7.9559220   7.9740878  -9.8379366   9.3950374
  -6.1729926  -1.1539982   9.2890053  -7.0550815  -0.6359235   9.1018968
  -6.3819846  -2.1410918   9.5459757   6.4640248  -2.9280212   8.1239872
   6.2969263  -1.9067872   7.9359343   7.1826763  -3.1158138   7.4762263
   4.9200118  -3.3979931  -8.8729810   5.6698433  -2.8081599  -8.5530857
   4.8089912  -3.1409108  -9.8891707   5.2389881  -8.0780148  -8.4959780
   5.3001390  -7.5958063  -9.4482463   6.2040028  -8.0559327  -8.2080783
  -2.7459697  10.0530054   5.8319844  -3.1140721   9.0798457   5.7679811
  -1.8433518  10.0800114   5.4222142  -4.8239909  10.8170072  -7.3230125
  -5.4621337  10.6979743  -6.5128266  -4.3429968   9.9189443  -7.5179992
  -1.8980111  -0.7100064  13.0939784  -1.8320045  -1.6884639  13.5271149
  -1.6308224   0.1815758  13.6622510   4.6490105  11.1099955  -0.6240042
   3.7269520  11.4600190  -0.2828970   5.1838089  11.4249663   0.1779776
  -2.3290005  -9.1090065  -5.9810060  -3.1010802  -8.9159898  -5.3199913
  -1.5299221  -8.5499253  -5.6209459  -9.6329922  -6.8919995   7.6920044
  -9.3890065  -7.5570221   6.9639567 -10.6551184  -6.8170042   7.7639731
   2.4079507 -11.6689925   6.0320063   1.3943266 -11.6849819   6.0949814
   2.7710808 -12.6291239   6.1129417   3.2730003   4.5130006   3.4329998
   3.1069958   3.4959892   3.4049979   2.3569960   5.0009932   3.4589997
  -1.7029999   7.2460003   0.7499995  -1.1000001   7.8829976   1.2900020
  -2.0250006   6.4759905   1.3490056  -7.8699939   7.1220192  -9.2510129
  -6.8800581   7.1259441  -9.0069788  -8.2570600   6.2867454  -8.7618188
  -5.1090113   8.2619993   4.5400057  -4.5709521   8.3840324   3.6348395
  -4.5009353   7.8389651   5.2821047   7.6659754  -1.6929835  -5.6030046
   8.4642101  -2.2691921  -5.2148815   6.9591599  -1.8320718  -4.8910876
  -9.7959942   6.3700389  -2.2079996 -10.0838144   7.2656268  -1.9941651
 -10.4462498   5.6146762  -1.7938921  10.7009846  -4.9499981  -3.0350070
  11.0220260  -5.3339686  -3.9129525  11.5511299  -4.7849923  -2.4709586
  -6.3059842  -6.4310002  10.2349960  -5.6110204  -6.9109329   9.6730700
  -7.2452275  -6.8850599  10.1499883   8.4089966  -6.6839961  -1.6180033
   7.9739896  -6.0760413  -2.3099550   9.4350849  -6.6690342  -1.7029557
  -5.4069995   4.6120037   3.7379959  -4.4871006   4.5629652   3.3160005
  -6.0109488   4.7339882   2.9090224  10.8579880  -3.2639912   3.0709903
  10.7290450  -3.1979873   2.0560416  10.2950603  -2.6271413   3.6019825
  -4.5509988   0.3299989   0.3819981  -3.9689974   0.2120109   1.2270183
  -5.4550086  -0.0849972   0.6650119  -3.5359888 -10.6339782   8.3080132
  -3.6041448 -11.6321820   8.0278768  -4.5169819 -10.4031513   8.1528767
   4.9010144  -4.7350075   5.3930078   4.9919363  -3.7400709   5.5999753
   5.5118727  -5.2928760   5.9707995  -3.4619696 -10.4650036 -10.4139932
  -2.8011407 -10.3190429  -9.6861762  -4.4673931 -10.1338682 -10.1928804
   8.6260053   3.5179937   6.2810026   8.2489429   4.2920906   5.6930597
   8.3739655   3.8080111   7.2109148  12.4170130   0.2690160   2.8560199
  12.0198686  -0.2731564   2.0177001  12.3219827   1.2489177   2.6449707
   7.2359998   0.8270145  -0.5140143   8.2780915   0.7239275  -0.4468776
   6.9180382   0.0199020   0.0780908   2.3130041  -3.0310136  -7.5680086
   3.2188169  -3.3909390  -7.7859001   1.5940640  -3.4848858  -8.1089723
   2.8159950   2.7400046  -7.9160083   2.8921187   2.2729810  -6.9909648
   3.7740029   2.6129499  -8.2288915  -8.0720169  -4.2209756   7.0540463
  -7.3085448  -4.1440599   6.2524849  -8.5871627  -5.1263916   6.7777831
  -3.4569918   7.2959992   6.4700041  -3.2181028   7.7109423   7.3678843
  -4.0179742   6.4770398   6.7500216   3.5710332  -7.5220007   7.0859968
   3.2900643  -7.9089195   6.1940870   4.5284921  -7.3511344   7.0619624
   2.6269830  15.6369922  -2.6849909   3.1480271  14.7759782  -2.4629818
   3.2552107  16.2011462  -3.3021676   1.7129830  -6.0139952   8.6050125
   1.9230996  -5.0100467   8.5459465   2.4731564  -6.4459708   8.0168696
   7.5960068  -8.4919914   6.2270073   8.4949157  -8.3950513   5.7489594
   7.1189690  -9.3090858   5.8169260  -6.5400043  -3.2080039   5.0140007
  -5.6769244  -2.8989218   4.4979970  -7.3279808  -2.8239646   4.4840235
 -10.5050076   0.6630062  -5.0160387 -10.5220264   0.1828361  -4.0394897
 -11.2438770   0.2860896  -5.5649075   4.9859965 -10.9600029   7.0720067
   4.3960108 -10.9899593   6.2459378   4.3869340 -10.4328985   7.7690077
  -1.8820012   2.8310025   3.1920037  -0.8899975   2.6669818   3.4529843
  -2.4479862   2.3859936   3.9309865  10.6849957   3.7339958   4.4349788
  10.1749614   3.4769250   5.2860188  10.1749953   3.2880573   3.6812285
  -1.7480012 -10.9739857  -2.7089959  -1.8259252 -11.0999967  -1.7021107
  -1.6040177 -10.0012011  -2.8589203   6.2070014   1.3420032  -3.0580015
   6.9299657   1.8420048  -3.5999934   6.5349741   1.1869690  -2.0879861
  -6.7149884  -7.3120037   3.8329789  -6.4120851  -7.1189634   2.8862127
  -6.9801123  -8.2940131   4.0111119   9.6620011 -10.0799963  -0.4889976
   9.7289710 -10.7600091  -1.2450428   9.0559932  -9.3480016  -0.8439795
  -6.0749887  -9.9889911 -10.1050052  -6.5870922 -10.8730956  -9.9959171
  -6.2620822  -9.4640072  -9.2319791   6.2770048   5.0020110  -7.7880025
   5.9779876   5.5429587  -6.9630134   6.1000302   5.5348335  -8.6177999
   4.8250044   9.2720138  -9.9759762   4.2098247   8.5287904 -10.4241957
   4.3680104   9.6679518  -9.1781328  -7.1749960   3.9569959  -3.5829862
  -6.1688404   3.6809551  -3.7429792  -7.6552033   4.3451358  -4.4612181
   6.5310069   9.3590190   2.4410216   6.4869583  10.2579655   1.9449355
   6.3009104   8.6137135   1.7137138  -4.1750043   0.3530055  11.2889952
  -3.5889569  -0.3671414  11.7370308  -4.4619980   0.0240109  10.3670039
  -0.8380012  -5.9040009   2.0629978  -0.4939921  -6.1249856   3.0110071
  -0.0319878  -5.5909881   1.4940245   5.7500117   1.1459958   4.2959848
   6.7371886   0.9348832   4.6390793   5.1847271   1.5861219   5.0871880
   3.7819992   2.3959994  -3.6399997   3.3010055   2.4220074  -2.7400068
   4.7430059   2.0390019  -3.4719988   2.9859938   4.7019977  10.5169982
   3.5860736   5.3700320  11.0050116   2.7810436   3.8880241  11.1030206
  -0.6189873  -4.2820141  -9.8629759  -1.6470718  -4.2259536  -9.6909229
  -0.1891563  -4.4578328  -8.9873325  10.4449834  -0.2230156  -3.5830199
  10.1761015   0.2779516  -4.4057844  10.0771300  -1.1527612  -3.4839494
  10.2860018  -7.7779931   5.4330169  10.2439929  -7.1369830   4.6248754
  10.2060204  -7.3430905   6.3559067  -3.2759997   8.5979976  -7.8879951
  -2.4479192   8.7600050  -7.2609342  -2.9930529   8.7590060  -8.8751589
   5.2260009  -1.8560000   5.4200005   5.8239911  -1.3220017   6.0629920
   5.5549887  -1.6489975   4.4749947 -10.1040049   2.5429871  -0.3899810
  -9.9659493   2.4930284  -1.4493015 -10.2149773   1.6311638   0.0379767
   3.5509998   4.8279990  -4.9739996   2.5759973   5.1430021  -4.9279975
   3.6700013   3.9300090  -4.4860024  -5.3279872  -7.0869964  -1.1120077
  -6.0261254  -7.6010324  -1.6891520  -5.5890872  -7.0999737  -0.0787075
   0.8229999   5.8420002   3.4659996   0.8660008   6.7509986   3.0100013
  -0.0740005   5.7359936   3.9480019  -4.4569967   8.3280153 -11.4130132
  -5.3910803   8.0779408 -11.7479878  -4.2459740   7.6628335 -10.6357863
 -13.2039795   2.5259902  -0.5690061 -12.5840404   3.3420217  -0.5039590
 -14.1732606   2.8881421  -0.3829286  -8.7219766   7.4499817  -4.5470021
  -9.4011895   7.0930672  -3.8298766  -9.2111911   8.2842391  -4.9670545
   7.3579963   4.9420044   1.8859876   7.4050227   5.0179044   2.9250992
   7.3110598   3.9180157   1.7830670  11.0749836  -1.9109936   6.8109998
  10.8930261  -1.8210336   7.8059829  12.0402267  -2.3020928   6.7080061
 -11.2330138  -6.4500031  -2.7850140 -10.3397466  -5.8679281  -2.7649482
 -11.3639948  -6.8289829  -1.8127686 -12.6930030   0.5519997  -2.4699956
 -12.6999498   1.3279438  -1.8070610 -13.3850183   0.7210215  -3.1980299
  -4.5149778  -6.8530065 -12.3760243  -5.2163291  -6.5637835 -11.6026893
  -4.0140247  -6.0171019 -12.6589366  -7.4439806  -9.3240179  -1.3219734
  -7.9930675  -8.8759377  -0.5649965  -7.9411882  -8.9917871  -2.2384519
  -3.3079987  -4.3299917  -9.8260019  -3.7489773  -3.9589615 -10.6609380
  -3.4010430  -5.3720506  -9.8169672   8.2719948  -7.6160103   0.8940042
   8.1349266  -7.3540901  -0.0899699   7.7071385  -8.4187729   0.9728816
  -0.1349939   0.6020113  10.8769963  -0.7410140   1.4030259  10.6389398
  -0.6559595  -0.0600537  11.4710429  -0.3319900  -0.0889896  -8.0850087
   0.2658547  -0.1240050  -8.8908409  -0.3510138   0.8808817  -7.7869982
  -0.6129969  -7.3689983   7.5180023   0.3178726  -7.1630456   7.8528891
  -0.7459748  -6.8510275   6.6580575 -10.1559924  -2.5480148  -0.3120001
 -10.6800092  -3.2709513   0.2019952  -9.1861199  -2.7998858  -0.4919904
   7.0270017   2.2670091   1.8210038   7.0280312   1.6968775   0.9368716
   6.3028889   1.9099676   2.4770584  -3.5479929  -4.3400156 -12.8519922
  -3.9661152  -3.5847933 -13.4451248  -2.5820252  -4.1079869 -12.6359863
   4.4899934  12.2839873  -7.7770070   4.9249843  11.3368709  -7.6449816
   5.0930397  13.1352722  -7.6999747   1.5380024   9.0470106  -8.7239992
   1.9389511   8.5539865  -9.5460890   1.7639154  10.0398855  -8.7849690
  -7.2689964   5.2429937  -1.2269913  -7.0759689   4.5899074  -2.0341274
  -7.9100138   5.9501494  -1.6260395   5.3649814   3.3449918   9.2029996
   4.5169766   3.8609972   9.4790122   6.2112843   3.9690808   9.1349450
  -5.9969968  -2.8830039  -4.4809962  -5.6789837  -2.3989667  -5.3280802
  -6.9050544  -2.4249488  -4.2279503   7.6619864  -4.3880218   0.4340085
   6.7601245  -4.1449437   0.8419373   7.9540446  -5.3316966   0.4129313
   2.0809842  -3.3629999   8.2570001   2.2109945  -2.6969776   7.4589117
   3.0202120  -3.4910212   8.7270260   7.1739794   8.5639870  -5.5739837
   7.3020839   9.1089520  -4.7281765   6.5812302   7.7501653  -5.5680738
   2.8770103   7.5989941 -10.6079861   2.3589883   7.8849516 -11.4380337
   3.1849025   6.6631215 -10.8661054  -4.0480000   5.2079998  -0.3340007
  -3.9849984   5.4779990  -1.3309926  -4.6739993   5.9330001   0.0540030
   8.6469860   4.8280156  -6.7460220   8.9089863   5.7669134  -6.4099908
   7.9822264   4.8009010  -7.4898599   0.5310196 -12.8049762  -3.5840086
   0.4439293 -13.8564828  -3.7560385  -0.3142202 -12.4859631  -3.0408244
   5.8069798  -5.5010043   3.0790315   5.5730725  -6.4429133   2.7379389
   5.3522161  -5.1690119   3.8966512   2.1250087   2.7049940 -11.9390047
   2.6930638   2.8260114 -12.7729696   1.1338254   3.0440532 -12.0389751
   4.3949747  -3.8340055   9.7420076   5.0791778  -3.6458873   8.9226413
   4.9261702  -4.0210284  10.6373050   6.6119855   2.7050065  -9.2239805
   6.4070094   3.4388255  -8.5601149   7.3862432   3.0210974  -9.8652152
   6.9369930  -0.3989987   7.2370285   7.4811232   0.1351193   6.4998371
   6.8490338   0.1618710   8.0567683  -4.4079816  11.3920050  -3.8919954
  -5.4072452  11.3550373  -4.2400233  -4.4800370  12.0918564  -3.1700720
  -4.6859993   2.9339991  -3.7500000  -4.4500019   2.8930065  -2.7339932
  -3.9560049   2.3950071  -4.2460010   6.8189917  -1.6430003  -8.2010117
   6.9639745  -1.6620194  -7.1507837   7.7211165  -1.6390156  -8.7000595
  -2.8519943  -6.7780032   8.9279997  -1.8940798  -7.0108733   8.6810984
  -2.7179439  -5.8951041   9.4159312  -3.5939985  -5.4689978  -2.3049997
  -4.2440088  -6.1250117  -1.8199967  -3.9630142  -4.5240129  -2.1090035
   1.6629834   2.2479828  11.6909877   1.4809823   2.7570031  12.5550327
   0.9751339   1.5071534  11.6771502   3.0259896  -9.2450098  -6.0660122
   2.2429783  -9.7560318  -5.6140801   3.7181555  -8.8368606  -5.3848877
  -5.8369966  -9.8779858   4.4129871  -5.8350591 -10.8411750   4.8141548
  -5.0349949  -9.7009884   3.7930305 -11.9649808   4.3689696  -3.6240098
 -12.1449620   5.1792417  -2.9898020 -11.0792541   4.0352403  -3.3290037
  -6.5559910  10.5780049   4.7089901  -5.8850270   9.8170091   4.9020516
  -7.2340557  10.5209546   5.4820735  -0.3930100  10.0309905   4.6369930
  -0.2400332   9.4318795   3.8040098   0.1201114  10.9462442   4.6701279
  -1.7629908   3.8070121   6.2959882  -1.6490084   4.5178128   5.5951513
  -0.8881319   3.3840172   6.5690141  -3.6309849 -11.6990176  -5.8289944
  -3.0479913 -10.8670820  -5.9109403  -3.0072632 -12.3816465  -5.5610844
  -4.5889848   0.1400067  -9.4029890  -3.8401091  -0.4469028  -9.0850606
  -5.2761646  -0.5122138  -9.9011416  -8.7579918   6.7409877   2.3750031
  -8.2290062   7.5890051   2.1269383  -8.1211462   5.9711108   2.4629848
  -1.9860000   8.4319994  -1.6530000  -1.8799998   7.9219985  -0.7549980
  -1.1289985   8.2720004  -2.2009993   5.8099991  -1.4680001  -3.3980004
   4.7910072  -1.6189999  -3.2999949   5.9750038  -0.4499970  -3.3499952
  -8.0439930   5.1360050   6.4170153  -7.9610555   5.8200570   5.6107408
  -8.8810995   4.5649118   6.2549309   2.8250087   0.1499804   9.7479915
   2.6550717   0.9570862  10.3821274   3.4758399  -0.3927865  10.2809117
   9.2529904   0.6399952  -6.0400028   9.5990292   0.7950107  -6.9859903
   8.8081070  -0.2609225  -5.8909485   6.0479962  -6.4080009   7.2010090
   6.2999460  -6.2419358   8.1869581   6.7810438  -6.9739988   6.7238872
 -11.1969693   5.7849675   1.9229974 -11.7542274   6.6884786   2.0910584
 -10.2401960   6.0790081   2.0999573   4.5469912   5.0160128   5.8450196
   4.1209587   4.8858730   4.8666670   4.1021378   5.7179567   6.4570745
  -3.2210069 -12.5930258   1.4150063  -3.0269279 -11.7156210   0.8369433
  -2.9249789 -12.2399099   2.3169767  -8.3450199   4.9249906  -5.8350173
  -9.0356166   4.7611732  -6.4736648  -8.4080524   5.9269690  -5.6440822
   2.3090005   9.0959983  -4.6190094   2.7439618   8.7080508  -5.4458958
   1.8040400   9.9579606  -4.8429459   3.0889978  -1.6689996  -3.0310003
   2.8270190  -0.7850243  -2.5850165   2.5770176  -1.7329998  -3.9300026
  12.0929715   1.9799953  -2.2760168  13.0023122   1.8159041  -1.7618125
  11.8221052   1.0951465  -2.6528774   0.4979970  -1.9919767  10.3959981
   0.4890036  -0.9973188  10.3810727   0.8529952  -2.3700240   9.5069875
  10.7219982   4.0280068  -7.9660055   9.9979389   4.2039577  -7.2167839
  11.6209589   3.9539756  -7.5180084  -5.1379946  -1.0289997   6.8130296
  -5.7622244  -1.3981041   6.0296319  -5.4908420  -1.1399019   7.7558514
   0.8170011  -9.9999902   0.2270002   1.0549850  -9.2101071   0.8099804
   1.3000582 -10.7991082   0.7100753  -0.0020277  -8.7479915   3.9139993
   1.0293281  -8.9880600   4.0069942  -0.1329720  -7.9050582   4.4800178
  10.3030114  -0.8479996   4.4589992  11.0508895  -0.3090135   4.0180489
  10.6109356  -1.2270104   5.3669648 -10.6189881   2.0370275   3.8469959
 -10.9932186   1.0586902   3.9940357 -11.4739260   2.5208430   3.6420339
  -6.8329971  -0.6750175   1.5330018  -7.0480441   0.1521565   2.1550472
  -7.0329813  -1.5298975   2.0199341  -7.4400367   7.2989873   5.0990218
  -6.4735430   7.6012098   4.6386192  -8.0558125   7.8359541   4.5280601
   7.2660094   5.3469962   4.6379894   6.3689480   5.1370131   5.1180792
   7.3139489   6.3700375   4.6860539   1.5889863  -6.1650012 -13.1620448
   1.6019935  -6.1199113 -12.0603939   0.6932084  -5.9210453 -13.4898989
   0.5459989  -5.1860018  -7.7310003  -0.1289364  -4.9530064  -6.9990420
   1.1880052  -5.8920014  -7.3200073  -1.0200026   8.6669989  -9.5339893
  -1.0429757   8.3390300 -10.5211776  -0.0809582   8.5029728  -9.1290131
   0.7640087   2.5440016   6.9190063   1.5809729   1.9090138   6.9769481
   0.9119485   3.3549935   7.5600136  -1.0709856  -9.9989714   7.5449992
  -2.0590632 -10.0799557   7.8839886  -0.8970819  -9.0414999   7.4480359
   0.8230116 -10.2400043   9.2950071   0.4299768  -9.8219832  10.1600013
   0.0587823 -10.1249061   8.5557935  -9.5399961  -3.1449940  -7.3970250
  -9.8359536  -3.1670190  -8.3286352  -8.6681445  -2.6470587  -7.2669529
  -0.3580076  -8.3130111 -10.1109874  -0.3610111  -8.6320051 -11.0931296
   0.4640403  -7.7039802  -9.9509444   0.4659667  11.1079985  -5.5669835
   0.8361314  12.0801664  -5.7740025  -0.3256019  11.2229099  -5.0072677
   8.7290029   3.2349958  -1.8350376   7.9118624   3.6550843  -1.3007473
   8.5971108   3.0920265  -2.8157021  -3.6479942   8.7010050   2.2940041
  -3.6980459   8.1600234   1.4209211  -3.8009976   9.6548684   2.0159744
  -8.1710061  -1.3729964  -4.0180021  -9.0738992  -1.3379962  -3.5299956
  -7.5489979  -0.8600148  -3.3879698   7.2179962  -3.5229970  -2.1479962
   7.2190247  -3.7760100  -1.1570907   6.5470369  -2.7820471  -2.3880068
  -9.0390045  -2.2190038   3.8909960  -8.7989479  -1.5699571   4.6610424
  -9.9469932  -2.6529865   4.0220023   2.5850102  11.4690101  -9.2930088
   3.2508860  11.9390619  -8.6681219   2.5090501  12.1108040 -10.0176696
  -7.1269974  11.1050020  -4.2540083  -7.9131051  11.7521530  -4.4460725
  -7.2049405  10.4048303  -3.4637881   1.6009908  -2.0490085  12.9619472
   1.1222969  -1.9590303  12.1415782   1.1238322  -1.4727891  13.7072392
  -0.2220014   1.4239971  -5.0419976  -0.2279686   0.9000708  -4.1640507
   0.7610132   1.4260117  -5.3690070  -6.3860093  -9.7130185   8.6620122
  -5.8119030  -8.9258309   8.2388139  -7.2430237  -9.6478745   8.0929674
 -11.5219924   4.8499966  -0.6159735 -10.8060870   4.1351407  -0.5181043
 -11.7350482   5.3519496   0.2217056   6.4439916 -12.5200098   1.3679940
   7.3480347 -12.7119327   0.9460592   6.6700900 -11.9449408   2.1880529
   5.6039900   8.7200076  -0.2830039   6.6511424   8.7230005  -0.3709898
   5.1729496   9.6629908  -0.3859422  -1.2740002  -6.9379978  -2.2250000
  -2.0370009  -6.2410178  -2.2030000  -0.9879977  -7.0170108  -3.2180013
   0.8359994  -8.8120135  -2.3270030   0.9269737  -9.2838271  -1.4371221
   0.2150433  -8.0300118  -2.0739017  -0.6660023  -3.9639994  11.7839980
  -0.1259460  -3.2610268  11.2500153  -0.0750036  -4.7809517  11.8959634
  -6.0289924   7.8860065  -5.4719861  -5.3181080   8.1629040  -4.8281628
  -6.9800097   7.8599988  -5.1000461  -7.4719908   0.5229881  -6.2490061
  -7.1739649  -0.4068873  -6.5249390  -8.4961483   0.5640673  -6.0559840
  -2.1120019   8.1250019   8.7220072  -2.5109339   8.1609976   9.6458945
  -1.6639653   9.0158733   8.5319886 -11.7539928  -2.2360135  -6.0289921
 -10.8379651  -2.6440309  -6.2659443 -12.0991180  -1.5217645  -6.7071496
  -3.4130007  -5.0150001   2.3899981  -3.6849930  -5.2739948   3.3520073
  -2.4269887  -5.2909916   2.2350166  -2.9480002   5.0940008   2.1740000
  -2.4639926   4.2219795   2.4719978  -3.3089974   4.9919924   1.2079980
  -4.4230148   2.5160088 -11.6069998  -5.3827300   2.6689429 -11.3710023
  -4.1189966   1.6799380 -11.0979657   4.9499996   2.4280204   6.7280136
   5.1319693   2.5579593   7.6966951   4.8410711   3.3687217   6.4061532
  -2.7419931   0.1529850 -13.7360046  -3.2990800   1.0261791 -13.6859658
  -1.8580348   0.3680571 -13.2529666  -5.2860144  11.8409847   2.7900199
  -4.6500031  12.4830375   3.2700048  -5.8748128  11.4441556   3.4837333
  -0.2359656  -8.7899884  11.3249947  -1.0820953  -8.2098502  11.5690410
   0.4725166  -8.1383004  11.2580402  -4.6010068  -2.9460030  12.1259809
  -4.4459109  -2.5919096  13.0952162  -4.0469767  -2.3749932  11.4990660
  -8.2129940  -0.0459757  -9.6749899  -8.0872079   0.8410102  -9.1909990
  -7.4688120  -0.7484869 -10.0481861  -6.8039974  -2.0550104  -7.5189876
  -5.9571219  -2.5129142  -7.2369914  -6.6229304  -1.6919364  -8.4821922
   4.7959885  -1.3480141  10.7580039   4.5559836  -2.1589713  10.1729896
   5.4751492  -0.6948125  10.2848981   3.8420139   9.8870187   9.1800189
   4.5441901   9.1547292   8.8829565   2.9355419   9.8329651   8.6187725
  10.9319988   4.4090213  -0.7240012  11.7990706   3.9038674  -0.4869530
  10.3079312   3.6367297  -1.0840123   4.8879990  -3.0949921 -11.7670076
   4.3670519  -3.5959162 -12.4619320   4.8889372  -2.1201951 -12.0100053
  -5.0710178  -7.5840120   7.5870044  -4.1737275  -7.0827687   7.9050026
  -5.0449859  -7.5809849   6.5588912   2.7530004  -5.5110018   3.0110001
   2.4869938  -5.2289826   3.9659902   3.2339986  -6.4099908   3.0390016
  -3.4350013   4.5450118  -8.3880045  -4.2469015   4.9468251  -7.9520154
  -3.4940570   3.5529381  -8.0559126   9.1629794   0.1189868   9.8190029
   9.8031731   0.9312349   9.6549451   8.1950845   0.3400072   9.6180087
  -7.2039823  -0.5829756  -1.3400078  -6.7451763  -0.0083216  -1.9988828
  -7.3600979  -0.3131366  -0.3670178  -0.4510309   0.7090303 -12.1840100
  -0.9939381   0.9649139 -11.3720803   0.3284676   0.0115920 -11.8617689
  -4.5230000  -5.6749943   4.8230014  -5.1109504  -5.0490847   5.3559682
  -5.1499952  -6.3929937   4.4320146   9.7620034   0.9089888  -0.9489889
   9.3478955   1.8491872  -1.2330749  10.0219797   0.5260182  -1.8750608
  -5.5279941   5.9160025   9.3770084  -5.6880268   5.2329926  10.1119860
  -5.5330924   5.4378984   8.4348022   8.3499960   2.5289954  -4.4059984
   8.8881192   1.8989348  -5.0510421   8.4100036   3.4930748  -4.7709496
   2.8359859   6.5399799   7.2620026   2.1592339   5.9432293   7.6629093
   2.4979858   7.5130651   7.2850717   3.3450199  -9.7280053   8.5399873
   3.2459633  -8.7858988   8.1049393   2.4267724  -9.9500281   9.0461664
   4.9579961  -8.2499803  -3.9040206   5.1150421  -9.1212101  -3.3107535
   5.8960452  -7.9869463  -4.2599075   5.0299886  -7.9439905   2.2999839
   4.4091951  -8.0690026   1.5231545   5.0820281  -8.8261185   2.8420901
   2.3549995  -5.2020074  13.1330052   2.2390780  -4.1979828  12.9899905
   3.2959517  -5.2839184  13.4849454  -6.5460178 -11.9249845  -1.4979814
  -5.7998531 -11.9279675  -2.2582872  -6.9258319 -11.0132881  -1.5390429
   2.2060003  -4.9080010   5.6360007   3.2429954  -4.9219917   5.6279933
   1.9019971  -4.4549921   6.5009899  -2.3649857  -7.2670020  11.8650020
  -3.1921774  -7.3469747  11.2449711  -2.7420388  -6.9879926  12.7659676
   4.8030016 -10.7639980   3.6440005   4.7250523 -11.7340188   3.9490078
   5.8079222 -10.5680250   3.7339755  -2.0459935  11.8059845  -1.1790071
  -2.2919286  10.8330900  -1.0599982  -2.7461666  12.4981915  -0.8019075
  -2.9209979   1.1389984  -4.7649987  -2.9880276   0.5130179  -3.9540078
  -1.9240130   1.3330190  -4.9620141   9.0139985  11.5189779  -0.1160023
   9.9869190  11.6909491   0.0579902   8.8690740  10.5513599  -0.1499558
  -5.6010355  -6.5060080   1.5099957  -4.5695449  -6.1898302   1.6470205
  -6.0118608  -5.6640909   1.1510337  -3.3480013   1.3620005   5.0390001
  -2.6579915   1.1879947   5.7919948  -4.2349881   1.6309960   5.4679964
  -2.7689701  -7.0040112 -10.1899794  -3.1850934  -7.1890014 -11.1553264
  -1.8583280  -7.3698054 -10.1070098  -0.8289922 -13.1149938   3.3789904
  -1.3551153 -13.9601599   3.6911023   0.1660038 -13.2829632   3.2800116
  -8.0350102  10.3199949  -0.1390183  -8.7948308  10.9598728  -0.1150041
  -8.0990061   9.7112016  -0.9147009  -7.5160142  -3.0960077  -0.6649965
  -7.4939773  -2.0698506  -0.9170180  -6.5238610  -3.3259812  -0.8970123
   4.2510013   1.1490015   0.7789981   3.7549975   0.9569975  -0.0949547
   4.9339842   0.3989897   0.9420124   3.4100285  -7.4989844  -1.8599964
   4.0408902  -7.8319911  -2.5858537   2.4797126  -7.9051691  -2.2111600
  -4.0549990  -4.8819990  -5.0899992  -4.8530086  -4.2620018  -4.9030038
  -3.8530046  -5.3820084  -4.2130018   1.4110117   9.1729896   6.7749875
   1.0029103   9.4270689   7.6961749   0.7049236   9.4600839   6.0740032
  -9.0689965  -8.4829962  -3.2989904  -9.4220413  -9.1932688  -4.0002342
  -9.7380308  -7.7147922  -3.0408918   9.0340061  -5.4490056  -6.0889738
   8.9760219  -5.3379784  -7.1363189   9.9568567  -5.7489333  -5.8700478
   1.1579792  -2.4819899 -14.0489968   0.8079061  -2.5870234 -13.0829506
   2.1254126  -2.8781396 -14.2271032  -4.3259962   6.2130136  -2.8890194
  -4.5379602   7.1717303  -3.0779983  -4.0251117   5.8251886  -3.7317047
  -7.3300058   1.2969976   3.3049942  -8.0029756   1.9469337   2.9020417
  -6.6909359   1.8420874   3.9130522  -4.9349973  -3.0859989  -1.9970000
  -4.4770282  -2.1630028  -1.9360012  -5.3750113  -3.1030038  -2.9329990
   2.0660042  -6.7789910  -6.3249959   2.7219006  -6.2130721  -5.7901030
   2.4060148  -7.7660472  -6.3379875  -0.5020003  -6.9449987  -4.9099992
   0.4130040  -7.0850047  -5.3570027  -0.8739986  -6.0460066  -5.2550053
   9.4380028  -2.6820054  -3.3150034  10.0099212  -3.5218994  -3.2209548
   8.7660558  -2.8410524  -2.5418899   6.5579961   0.8259883   9.6589944
   6.7680368   0.9940722  10.6540505   6.4060934   1.7820922   9.2849715
   7.8560149   8.4129947  -8.7139872   7.8640457   8.3229769  -7.7050290
   6.9187387   8.6760817  -9.1281625  -1.6749879  11.8820051  -3.9439823
  -2.6031043  11.4039015  -3.9929520  -1.3940641  11.9009908  -2.9943096
  -3.8560063   5.1539756 -11.0780125  -3.8070031   5.1370632 -10.0398941
  -3.8079553   4.2152860 -11.4129059   9.7940236  -6.3759859   2.7460039
  10.7146396  -6.3200398   2.4300786   9.2439354  -6.9450971   2.0438687
 -11.4429965  -4.4669989   1.0890015 -12.4391443  -4.3799318   0.8109409
 -11.1878895  -5.3410536   1.5650254   0.8929791  13.5899975  -6.1609830
   1.0379952  14.1260581  -7.0230706   0.0342565  13.9358963  -5.7872164
  -8.7249863  -1.1479932   6.4580008  -8.3659571  -2.1151054   6.5949554
  -9.7402552  -1.1019766   6.7030032  -6.5709934 -11.1049963  -4.9789778
  -6.2919396 -11.7451044  -5.7501483  -5.7822325 -11.0149366  -4.3842032
   5.1760008  -3.5070008   1.0949989   5.0389887  -4.2009897   1.8420035
   4.3489909  -3.4919885   0.4740176   2.7720113  -9.2819896   4.9139881
   3.6858778  -9.4209460   4.5260843   2.5459805 -10.1822355   5.4511184
  -1.2329791  14.4889976  -4.6609951  -1.6061739  13.5921301  -4.3380431
  -2.1421597  14.8669092  -4.9469740  -3.7649937   2.0149948  -7.5299728
  -4.4140981   1.3619477  -8.0230560  -3.6650269   1.8261423  -6.5733659
  -4.0889969  -0.4640016  -2.3050002  -4.1160177  -0.0929827  -1.3429902
  -4.8610108  -0.0539931  -2.8489976   2.7219996   0.8260018   7.2760135
   2.6279718   0.4830032   8.2468793   3.6880057   1.1289409   7.1049928
   3.2310013   1.7580023   3.2160004   3.3779832   1.5309786   2.2190041
   4.0879890   1.4199870   3.6739931   1.3659998   8.0879993  -0.2990002
   2.2790018   7.5980006  -0.2879990   0.9930014   8.0000012  -1.2539987
  -1.4359998  -4.5209992  -5.8769985  -1.2900005  -3.4990020  -5.9480120
  -2.4330033  -4.6760054  -5.6450074   5.4769924  -6.8950268 -11.0740063
   6.0321974  -5.9986551 -10.9699235   4.4779054  -6.6269173 -11.0839935
   3.3840061   4.9489975 -10.4959987   3.0119947   4.1601029 -11.0189583
   2.6089230   5.2199925  -9.8740416   9.7660031   2.5430054   2.3780071
  10.1398684   2.3230120   1.4740676   8.7761784   2.4299960   2.2009223
   1.6290065   5.3160071  -8.0839957   0.5928181   5.4310657  -8.2889615
   1.9450596   4.3298640  -8.2390657   2.6360066  12.8559964   3.3939850
   2.0459541  13.6780356   3.5280162   2.7999554  12.6690531   2.4232095
  -3.6309923  12.7080202   5.4299837  -3.3949257  11.6866175   5.6751400
  -4.3861845  13.0690836   6.0501514   7.8590049  -9.2299997  -2.5380106
   7.7770106  -8.2538778  -2.1929057   6.9888846  -9.8090957  -2.4509261
   9.8539856   5.7639983  -3.0870205   8.8471537   5.8029887  -3.1300030
  10.1911020   5.6299968  -2.0866921  -5.8569982  -6.4030047  -9.8979935
  -6.7918767  -6.7379090  -9.6900201  -5.2900754  -6.5839912  -9.0560275
  -9.1070063  -4.9689893  -2.9610122  -8.1410388  -5.2689917  -2.9890290
  -9.2609128  -4.4081969  -3.7547722  10.9899838  -0.9619744   0.7519821
  10.4602123  -0.4682436   0.0952775  10.8869973  -1.9992008   0.6129873
   0.0779908   2.5740015  -7.7499987  -0.2359722   2.6389937  -6.7890769
   1.1261488   2.5039619  -7.7519467  -8.2399910  -9.8819900   2.4889946
  -7.3000382 -10.3000284   2.4430684  -8.8750773 -10.6611108   2.2549741
  -1.3029998  -1.7999993  -6.2499975  -0.9140001  -1.2290014  -7.0310096
  -1.7860075  -1.1590025  -5.6230280  -7.9469881   1.1110065   9.2660101
  -7.0162185   1.2579157   9.5638848  -8.0479657   1.3969669   8.2729206
   5.5670209   6.5050031  -5.6589759   5.9997229   6.2910812  -4.8134502
   4.6659610   5.9939590  -5.5359672   3.8390200  -5.3069810  -4.8239876
   3.8719873  -5.1570443  -3.8503296   4.4517203  -4.7172539  -5.2838170
  -2.3880017  -3.2060113   7.7950059  -2.7229908  -3.5687838   8.6718137
  -2.5690026  -2.2160387   8.0120543  -1.0260181  11.2990027  -9.2939966
  -1.0759502  10.2548983  -9.3640173  -0.0177647  11.5450186  -9.3660334
  -5.0599839   1.9909904   8.0810212  -5.5751700   2.2890132   7.1957345
  -5.1840223   1.0011691   8.0929474  -9.6929849  -5.9069994  -6.9930104
 -10.6031561  -6.1680291  -6.5719355  -9.6620391  -4.8800102  -7.0579798
   4.6600011  -5.2149978  -2.1810060   4.3400518  -6.1730824  -1.9149634
   5.4739100  -5.2960001  -2.7739259  -2.1960028  10.8619660   8.4490051
  -2.1219640  11.9235052   8.5840330  -2.5400286  10.6770204   7.4849078
  -1.7520077 -10.4929941   3.0179965  -1.3569444 -11.4310351   3.2140588
  -0.9809072  -9.8300238   3.2689820  -2.9429821   3.4200095   8.7679887
  -2.6180767   3.2179581   7.8321306  -3.9052606   2.9578669   8.8080275
  -4.4150026 -11.7409747  -3.0729833  -3.4939234 -11.2529006  -3.1210328
  -4.3610120 -12.7244904  -3.5092158   9.4100282   6.9859805  -5.5280214
   8.4464308   7.5102347  -5.4339123   9.7950902   6.7529755  -4.5717451
  -7.2049917   2.8049996 -11.0480226  -7.2350853   2.6050048 -10.0157792
  -8.1550704   3.1380163 -11.2058898  -4.5810014  -6.6260076  -7.6160148
  -3.7290226  -7.0769285  -7.2909198  -4.6559667  -5.8179251  -6.9759276
   1.1059998   6.1369997  -5.3159998   0.8940023   5.6490012  -6.1909991
   1.8199985   6.8249972  -5.5899981   6.4829943   4.6969913  -0.9010093
   5.6389266   4.3949678  -0.3659512   6.9861170   5.3781536  -0.2839113
  -3.7119974  -2.6220139  -7.9300178  -3.6750323  -3.4668758  -8.4868197
  -2.8749770  -2.5990279  -7.3389706  -4.3699915   8.7900084  -2.9950029
  -3.6160734   8.3699140  -2.4240015  -4.1620278   9.7708523  -3.1299186
  -3.5630384  -8.4750126  -3.5340063  -3.3388509  -7.8228330  -2.7468350
  -4.4745429  -8.8039694  -3.6330415   1.0979862   4.6409965   8.3879925
   0.1572258   4.9669123   8.5489428   1.6409982   4.9030818   9.2320573
   6.3210014  -0.9999998   1.2779993   5.8409850  -1.9059978   1.1350069
   6.9519873  -1.1619987   2.0819992  -0.4790070   4.1820186 -11.7209991
  -0.8959817   5.1029254 -11.6490651  -0.9279925   3.4779061 -11.1039380
   6.4550219   6.4039981  10.0290026   5.9508108   6.8740346   9.2469258
   5.7808195   6.3999833  10.8070685   2.3819943 -11.4689929   1.7169916
   2.9060183 -10.9890222   2.4560253   2.4790214 -12.4730437   1.8920589
   9.5089907   6.1479879   0.8940078  10.1999673   5.4880367   0.5340425
   8.7411677   5.6510966   1.3198836   3.6700084  13.3130052  -5.1579868
   2.6489736  13.3419365  -5.2960691   3.9839542  12.8989913  -6.0450637
  -8.4079990   1.8420007   6.7270021  -8.3210355   0.9230874   6.2979941
  -9.2689064   2.2389493   6.3930050  -7.8460179  -9.8910099   6.4210263
  -8.5590431  -9.3158902   5.9629485  -6.9786203  -9.8699808   5.7767166
   4.8929982   0.4150092  -8.7330021   5.4168997   1.2758435  -8.7779480
   5.5610889  -0.2810108  -8.3529369   3.6970011 -10.2280020  -8.3360064
   3.2940198 -10.0048882  -7.4019100   4.2559173  -9.3710010  -8.3848496
  -8.5040108  -4.9199905   1.1179892  -9.4326900  -4.8850139   0.8010656
  -8.0091201  -4.3371233   0.4580988  -7.3689979  -4.2950154 -10.5769981
  -6.8550299  -5.0069302 -10.0459363  -7.5590105  -4.5599320 -11.5410440
  -6.1789799  -9.0359712  -7.6529953  -6.0230276  -9.5739905  -6.8120511
  -5.8022541  -8.1514959  -7.5940578  -0.2480003  -1.5860001   6.9040016
   0.6559991  -1.8409962   6.4979797  -0.8099951  -2.4129942   7.1419855
  -3.5370112  14.2490073  -0.2740071  -4.1778065  13.9481547  -0.9597065
  -3.9509319  15.0777464   0.0588658   0.5109997   7.7709994  -2.9779996
   0.4970026   6.9609972  -3.6090023   1.1840027   8.4160018  -3.4250006
   1.7319979  -1.4910000  -5.4279987   2.0570074  -2.0569991  -6.2390029
   0.7130197  -1.5610030  -5.4530182  -1.7760075   2.2109965  -9.9100082
  -2.5019175   1.7580277  -9.3679730  -1.2180237   2.6550285  -9.1548854
  -8.8479970  -8.0090096   0.7779924  -8.5910293  -8.5948264   1.5930697
  -8.8340334  -7.1040704   1.2491019  -6.0119967 -10.8110001   1.1839806
  -5.2240921 -10.2840344   1.5459921  -6.1029775 -10.6629613   0.2062489
  -4.1610156   3.2739885  12.2179992  -3.1428749   3.1629495  12.0589827
  -4.5858901   2.3822395  12.1710309  -1.2429987   9.0569652  -6.1549811
  -0.7522306   8.3073285  -5.7971698  -0.5717814   9.8572481  -6.3831249
   9.7099873  -6.7350212   7.8180171   9.5830425  -5.7208167   7.9829245
   9.3651501  -7.3898521   8.4787833   3.1609987  -3.4930005  -0.8270031
   3.7230094  -4.2069999  -1.3349895   2.9780143  -2.7659989  -1.5309722
  -0.0440001  -6.1580012   4.7759999   0.8259995  -5.7039870   5.1019931
  -0.8529973  -5.5809856   5.1029976  -8.4669974  -7.1939930  -8.8460226
  -8.2720034  -8.1561373  -8.5208913  -8.9341251  -6.7359536  -7.9836520
